/*--------------------------------*- C++ -*----------------------------------*\
| =========                 |                                                 |
| \\      /  F ield         | OpenFOAM: The Open Source CFD Toolbox           |
|  \\    /   O peration     | Version:  v2012                                 |
|   \\  /    A nd           | Website:  www.openfoam.com                      |
|    \\/     M anipulation  |                                                 |
\*---------------------------------------------------------------------------*/
FoamFile
{
    version     2.0;
    format      ascii;
    class       volScalarField;
    location    "3.3";
    object      alpha.air;
}
// * * * * * * * * * * * * * * * * * * * * * * * * * * * * * * * * * * * * * //

dimensions      [0 0 0 0 0 0 0];


internalField   nonuniform List<scalar> 
4480
(
0.25
0.327249862758
0.25
0.25
0.25
0.353561684784
0.25
0.25
0.286605207487
0.410517644426
0.40573888886
0.25
0.25
0.365435389165
0.270259700046
0.342751482957
0.25
0.25
0.25
0.25
0.30878597205
0.332346206745
0.266165054865
0.25
0.327636409987
0.25
0.25
0.25
0.25
0.304862753217
0.25
0.25
0.340577723824
0.25
0.309932732682
0.25
0.31651057493
0.307203370259
0.335608786161
0.351741645782
0.327039049031
0.25
0.25
0.330531326782
0.25
0.25
0.25
0.345669795004
0.25
0.275960576948
0.261122036268
0.274166905604
0.312220174748
0.25
0.268929671513
0.25
0.25
0.331772497132
0.25
0.323291656487
0.253785998523
0.294985068456
0.329969345904
0.25
0.272577193612
0.358077332823
0.25
0.360988217025
0.25
0.444170876453
0.25
0.283517563052
0.28565106095
0.25
0.268426857778
0.302803008662
0.25
0.25
0.25
0.25
0.268725906301
0.326191788817
0.25
0.25
0.252004380764
0.25
0.271710926754
0.289188755993
0.32014630504
0.25
0.286105928473
0.300737861147
0.326709272472
0.25
0.376497632572
0.25
0.282357584627
0.300840555375
0.25
0.288401791918
0.341159791995
0.265356930245
0.469265821295
0.25
0.283651018526
0.25
0.304687375482
0.288881554903
0.25
0.290706541839
0.317302952647
0.331951023773
0.25
0.25
0.25
0.25
0.267898540783
0.25
0.313711434334
0.323939984448
0.27007669098
0.25
0.25
0.361787938801
0.25
0.293158314623
0.25
0.25
0.258946458089
0.314398604436
0.46174330891
0.294163106507
0.313611047549
0.500808642669
0.602441112169
0.438022768936
0.255471402803
0.401137126428
0.267617880935
0.258011337439
0.267410243554
0.25
0.25
0.25
0.262784157384
0.305450390409
0.312306478199
0.254888197462
0.25
0.455178909301
0.256727346523
0.25
0.25
0.357017788679
0.25
0.3026994327
0.25
0.289059666095
0.30139170612
0.366997552096
0.25
0.653728893811
0.854380657781
0.632836907222
0.566030877004
0.646385616412
0.699790669044
0.716535474443
0.282749080829
0.25
0.25
0.25
0.351177866246
0.25
0.25
0.25
0.25731859976
0.25
0.25
0.307910481938
0.328359019287
0.27486185633
0.25
0.25
0.314701548958
0.250342272633
0.360567245992
0.25
0.25
0.25
0.25
0.25
0.449815474167
0.59087269219
0.890318101025
0.843561430384
0.861447234965
0.799444200243
0.599180394821
0.589739664519
0.490125755536
0.275580988065
0.25
0.25
0.25
0.316702961912
0.281907955571
0.282235492315
0.254063871138
0.33690927835
0.25
0.292803779317
0.25
0.25
0.254938366674
0.405578744568
0.267777448492
0.25
0.278986362523
0.387785174994
0.301296830072
0.433373002547
0.25
0.380571070423
0.442405757375
0.60421256284
0.861802348114
0.867540665135
0.945391929559
0.760722417652
0.731417066983
0.717189041709
0.516288646689
0.454676722189
0.265677423002
0.356018177163
0.273365863584
0.258228970774
0.25
0.316673156636
0.359988636405
0.25
0.443628999428
0.25
0.300294470377
0.25
0.25
0.25
0.25
0.25
0.25
0.25
0.329934189292
0.25
0.321430689674
0.323248411927
0.519051673999
0.583943670418
0.700795171629
0.898245853359
0.918705297223
0.799347500044
0.681440101904
0.609505169483
0.559414912674
0.628551848624
0.401294895921
0.307095835156
0.25
0.277813929582
0.25
0.295629326822
0.25
0.320631244274
0.268247675755
0.25
0.25
0.25
0.298727932016
0.25
0.318205224907
0.267618404381
0.320871390607
0.338134773251
0.311825354507
0.25
0.326792868736
0.363702646224
0.604742629646
0.577431266019
0.710403340595
0.876330118516
0.833306563699
0.91008067101
0.677971622202
0.657453051502
0.70845158693
0.646600990448
0.485000518293
0.444879545182
0.25
0.334413651849
0.25
0.325073146072
0.280791681637
0.25
0.357569733623
0.25788603521
0.25
0.505018424091
0.263056641304
0.315409603072
0.25811650767
0.343019149366
0.276386462215
0.25
0.304069099659
0.258494374733
0.355787560725
0.465409211164
0.577227498424
0.449660450689
0.569763085558
0.824920849378
0.721288570476
0.670397410366
0.624591341307
0.645732980201
0.643307651583
0.720599640566
0.671922940231
0.592958359167
0.337510329092
0.303441510705
0.322893407218
0.25
0.257645918266
0.25
0.25
0.25
0.331663038063
0.361080274069
0.25
0.25
0.25
0.25
0.273088311454
0.25
0.25
0.349807763865
0.444548216273
0.501722073692
0.544917214556
0.417161765019
0.509497597854
0.557509530362
0.802254737684
0.653089408937
0.708668141848
0.748359236418
0.723317990534
0.69199764139
0.683129597359
0.668097398531
0.554608723732
0.447901267297
0.348311236671
0.364803837061
0.25279752381
0.314393950285
0.31402763649
0.275903745145
0.297273109098
0.25
0.290212646929
0.363545665262
0.25
0.29857977909
0.25
0.337475377696
0.336144673321
0.425302276097
0.563721298672
0.53912850464
0.608419412797
0.566887254074
0.616325747618
0.711422261128
0.728554296511
0.81203871947
0.618220364041
0.609687581999
0.635414737411
0.67958911077
0.694388104641
0.64651279537
0.612032445642
0.714561778158
0.49150474301
0.27540567888
0.307573527996
0.256533851117
0.255216235668
0.33195003386
0.263158293471
0.278765705185
0.344481755578
0.25
0.308486190922
0.319565952147
0.398194568695
0.4316114199
0.554937152353
0.6529124993
0.578970661853
0.669572932229
0.537589230061
0.520767332317
0.513545319746
0.548488013123
0.735980075958
0.719059859692
0.789651685546
0.73973513642
0.753002042492
0.594114892477
0.716953479595
0.690615993782
0.670499925007
0.658693931686
0.610575086619
0.371208831545
0.25
0.383949868939
0.25
0.25
0.256124579385
0.298161789222
0.369415517047
0.25
0.270736191458
0.25
0.372644759505
0.633880979872
0.528912668261
0.687239767743
0.652829345004
0.80357992245
0.704914402933
0.520813230485
0.627136346824
0.46693333322
0.64676399542
0.68585285577
0.806968991142
0.655019936833
0.632278307129
0.67032079463
0.716383454203
0.713866252335
0.63056736252
0.661931144647
0.664207120752
0.626821207123
0.447265959486
0.25
0.299987785305
0.250661590348
0.260134582561
0.288228767355
0.25
0.319198339373
0.272201728264
0.344719204201
0.509187889203
0.664731302579
0.665485777464
0.649884450436
0.750296195294
0.682238760929
0.682868070637
0.62236852388
0.496358301556
0.518347386561
0.706397141943
0.52995578754
0.888996368471
0.726282495799
0.72973688779
0.688288829192
0.670905302219
0.718760759539
0.774562528413
0.747111127259
0.776704583656
0.654267109043
0.556075735019
0.402122984395
0.273972808991
0.25
0.25
0.281472893084
0.261665457055
0.25
0.361032335118
0.550426143611
0.583484186524
0.686680289128
0.5576683711
0.693401231607
0.705645819632
0.798039039725
0.783959798123
0.711662125761
0.430437146694
0.536375289529
0.697133594847
0.690060278914
0.574904615708
0.838655306141
0.678245756519
0.552040298513
0.693076021873
0.709263874246
0.724524135698
0.756344170978
0.751373739718
0.708097099139
0.594641358613
0.555501997616
0.444248259732
0.367163963539
0.260251708095
0.284407214712
0.283686379067
0.452995180565
0.566406783224
0.644385551613
0.737417218238
0.748535441886
0.690013927122
0.754622937583
0.760557732105
0.796383102964
0.684582230636
0.768446376217
0.506729756521
0.536451589496
0.550739051069
0.734086144953
0.654530226427
0.693998645652
0.747708928749
0.5554394704
0.631306332663
0.725524158825
0.777594123985
0.764051997359
0.669633107931
0.799195542015
0.715136090543
0.628866568012
0.643984441411
0.600622286453
0.420624779257
0.40517056717
0.486369950688
0.686909233818
0.690348054149
0.721909072799
0.714413069058
0.749750185099
0.754628712727
0.676637519327
0.639771711897
0.684714642135
0.729880156337
0.792701513712
0.534160030456
0.571854690126
0.683991152359
0.721583179344
0.670528177101
0.68399499012
0.698902246548
0.584120601283
0.761840051993
0.740919027278
0.794931245488
0.766745865591
0.739526434588
0.707689199408
0.729726214751
0.798928067908
0.70435068928
0.752773862746
0.697513681225
0.665321786389
0.779165309713
0.775509809316
0.766634430658
0.794342507134
0.800158275216
0.830411804974
0.772334165479
0.707834354369
0.693583855696
0.789340030007
0.740243162401
0.780732826694
0.608743887338
0.56716023048
0.592327695363
0.699120618867
0.754980980726
0.669277907678
0.67789705127
0.615000479226
0.713761445572
0.651484898856
0.832903902749
0.719255700584
0.675357924085
0.757729633852
0.696431522929
0.746334451578
0.827782997796
0.84349138857
0.770664418321
0.926677240981
0.821597742712
0.810065713813
0.829659970653
0.751935127298
0.895266794633
0.876205436716
0.815055340337
0.786329530162
0.727285073838
0.729461058244
0.738451383695
0.88283693562
0.692286188449
0.513281804467
0.673616409498
0.683024955081
0.598424301825
0.725792301339
0.689423021312
0.65654733986
0.725743659283
0.813889029521
0.842884545943
0.699659856905
0.708524836901
0.749295547438
0.733499187063
0.789695005839
0.792160737321
0.857602761014
0.847909776855
0.995097345759
1
0.902650118247
0.868493886258
0.915956708006
0.92459270712
0.880473381732
0.801436038877
0.823144894827
0.73869151689
0.67942625739
0.717723383889
0.812428841778
0.631423859646
0.558995779137
0.6346769896
0.671273997798
0.715768576054
0.628741272281
0.690650375587
0.677707444005
0.79924857369
0.796823616363
0.838172567003
0.792775564838
0.80687453208
0.723397453626
0.717631715302
0.776428819009
0.836332094421
0.936993578212
0.856893484719
1
1
1
0.918543584973
0.877890997081
0.974308711288
0.803336478113
0.93862256665
0.809220957346
0.837083043945
0.746852746752
0.667083660896
0.625427073065
0.735785316669
0.637666918077
0.597277723136
0.645750088628
0.594307046673
0.668535294558
0.68553913026
0.804607873145
0.879339181715
0.836315006776
0.79167893879
0.783751087444
0.754105317669
0.789278841165
0.765705885568
0.852984493772
0.849537846314
0.832905587359
0.913053775428
1
1
1
0.96690129858
0.951213100444
0.928495037786
0.958417061421
0.929116826011
0.887352146682
0.720465623114
0.826689725459
0.687862258206
0.825325934736
0.699110911719
0.591542570869
0.57106135635
0.649297724506
0.645312919889
0.628141223485
0.582841277395
0.850281998986
0.926579369898
0.916319713314
0.781956298776
0.827779642936
0.79522794941
0.746813325971
0.76396733822
0.842613978292
0.822968404186
0.921388119886
0.978672143628
1
1
1
1
0.978259068434
0.947953290203
0.927322729177
0.978071166512
0.861591743358
0.833644123189
0.726155892752
0.771757722908
0.769384969959
0.653623130288
0.657191090972
0.658880386353
0.68941089475
0.738658285645
0.605057256063
0.69605551202
0.824173472321
0.809163969844
0.876837582929
0.814360082712
0.872563755272
0.863671873189
0.77129634107
0.859764642628
0.811227226959
0.80510489214
0.886521846759
1
1
1
1
1
0.997810818026
0.986250808416
0.974571127864
0.947763430649
0.84980258214
0.865603467581
0.711667158752
0.764289617563
0.911132365955
0.780840574823
0.687167484596
0.544381715099
0.653494087004
0.684286449812
0.720993653871
0.679938844104
0.797903163609
0.839944258185
0.936010496352
0.935607604065
0.921360922042
0.828455162819
0.802592953182
0.76949254756
0.872785609651
0.816906019395
0.925451667003
0.989689772381
1
1
1
1
0.989957421708
0.945104283464
0.973431923405
0.859223310421
0.860561885718
0.73357050498
0.745069143621
0.892127701192
0.888079243382
0.865965681042
0.760936450927
0.633497609765
0.580151701121
0.647450604029
0.69921067674
0.685473616893
0.953112723708
0.882176419397
0.950066013091
0.964208112639
0.968124540098
0.837155572934
0.897967738429
0.975779369488
0.993580251993
0.92854042058
0.998560114413
1
1
1
1
1
1
0.991176833434
0.968172151914
0.950148071515
0.839715904278
0.67995216846
0.755617870312
0.849465839702
0.97390444718
0.936644017767
0.8183964479
0.561928919041
0.608269085293
0.668076755187
0.609206717703
0.804356712598
0.83380597334
0.897661946271
0.957812778197
0.992725982648
0.970167018299
0.967389156204
1
1
1
0.994361281558
1
1
1
1
1
1
1
0.997515274924
0.984333978493
0.932428970933
0.902883011392
0.725346831555
0.77252067468
0.962780157053
0.93747781914
0.965781538721
0.938798195974
0.679898515816
0.553636449166
0.626910482394
0.701977442926
0.72977512769
0.766702553683
0.792291809489
0.948832853342
0.992264608028
0.965959014698
0.992507680314
1
1
1
0.9948410644
1
1
1
1
1
1
0.999425184192
0.988354617286
0.992950152486
0.950913604583
0.933008397998
0.785554585386
0.810894531991
0.930298699829
0.937224730866
0.967262986832
0.979216153167
0.819342204265
0.509076922385
0.600664042499
0.613468828991
0.756657449918
0.762421477814
0.879600697879
0.988679246026
0.997944196894
0.997567935364
0.995979877262
1
1
1
0.999560107475
1
1
1
1
1
1
1
0.995028231618
0.997206382038
0.969172245023
0.91190357432
0.688997388901
0.798222258395
0.929133200589
0.992085970017
0.989336322786
0.903975347006
0.751008690371
0.59731507963
0.669982127261
0.649444585746
0.681317245037
0.80410760806
0.869860530076
0.994691869338
0.991656578178
1
1
1
1
0.999995575848
0.999988487259
1
1
1
1
1
1
1
0.995679028149
0.999988775138
1
0.952044016257
0.788205788057
0.858498289903
0.94656942914
0.985929490307
0.990244102834
0.965828605006
0.915468574452
0.701409436819
0.610495946937
0.703367764743
0.703845261605
0.788822461792
0.870876621098
0.965668853166
0.99512711813
0.998946775747
1
1
1
0.999990941638
1
1
0.999990125321
1
1
1
1
0.998527535574
1
1
0.996589857752
1
0.843458493784
0.858319672024
0.91788549551
0.958842403424
0.966914014772
0.98357416858
0.919543858875
0.708634536852
0.578447294211
0.727237114812
0.730395867103
0.832647530532
0.85697557337
0.997575438686
1
1
1
1
1
1
1
1
1
1
1
1
1
0.994853357237
0.997309380075
1
0.997330143422
1
0.974787143291
0.929643725993
0.905685397866
0.952034716383
0.966120057787
0.989038231173
0.949445454394
0.835677354983
0.570293270184
0.729157763514
0.746521203268
0.795453375843
0.912923211003
0.999043326796
0.995145295692
0.990060469623
1
1
1
1
1
1
1
1
1
1
1
1
1
0.999988313561
1
1
1
0.979124265622
0.959915209232
0.927142780883
0.995088197663
0.986161413285
0.96552150154
0.868348303184
0.580640902249
0.72428948458
0.755635991515
0.760428320168
0.983240165171
1
1
0.995511823003
1
1
1
1
1
1
1
1
1
1
1
1
1
1
1
1
1
1
0.958146395689
0.95333487205
0.982506196182
0.990884373299
0.940134920803
0.844767688062
0.618229151309
0.753126326206
0.674664070383
0.748888991104
1
1
1
1
1
1
1
1
1
1
1
1
1
1
1
1
1
1
1
1
1
1
1
0.972950288874
0.973376078455
0.963545808888
0.953538009555
0.850093717377
0.581197723781
0.721399704813
0.789145173119
0.899236648359
1
1
1
1
1
1
1
1
1
1
1
1
1
1
1
1
1
1
1
1
1
1
1
0.965477103997
0.986922885031
0.970977276126
0.928148833098
0.664549952671
0.621456744433
0.794243614489
0.649214977873
0.942198589755
1
1
1
1
1
1
1
1
1
1
1
1
1
1
1
1
1
1
1
1
1
1
0.977693494813
0.968506132422
0.989847495326
0.981652212246
0.807009568719
0.547685164013
0.656678571719
0.710966208355
0.706969396049
0.992761220142
1
1
1
1
1
1
1
1
1
1
1
1
1
1
1
1
1
1
1
1
1
1
0.919769481114
0.968408012926
0.962676740748
0.908728997449
0.690508505965
0.644215270216
0.659041608784
0.721052941817
0.752845315319
0.997015335783
1
1
1
1
1
1
1
1
1
1
1
1
1
1
1
1
1
1
1
1
1
0.999307879762
0.93309851938
0.965899772712
0.952863203922
0.864242214807
0.744577263391
0.704657362237
0.700343043508
0.751729874166
0.705874127206
0.998435247769
1
1
1
1
1
1
1
1
1
1
1
1
1
1
1
1
1
1
1
1
1
0.993741472469
0.965701818127
0.949140077437
0.926749005616
0.904497196265
0.741530809188
0.699492446381
0.716551643852
0.773508674405
0.811041592634
0.996823069362
1
1
1
1
1
1
1
1
1
1
1
1
1
1
1
1
1
1
0.999489929929
0.999009964583
0.999345475531
0.969531779324
0.975094357586
0.977995117698
0.987881031739
0.935821612595
0.805635014315
0.709816318088
0.716361966705
0.792009885543
0.77136997401
1
1
1
1
1
1
1
1
1
1
1
1
1
1
1
1
1
1
1
0.999407125844
0.996227051632
0.973508595258
0.950604977695
0.971514599725
0.988228838161
0.994669319081
0.946940573196
0.826081755521
0.738185150569
0.805521760302
0.81160980579
0.793262337518
1
1
1
1
1
1
1
1
1
1
1
1
1
1
1
1
1
1
1
0.999188712105
0.972398647911
0.941891079535
0.949027503244
1
1
0.997255994945
0.982465959397
0.886551458042
0.790708727089
0.863729319264
0.831375022835
0.793190265457
1
1
1
1
1
1
1
1
1
1
1
1
1
1
1
1
1
1
1
0.991797762899
0.960444313215
0.942195373356
0.995084421924
1
1
0.998763351325
0.999781152463
0.953434846427
0.902245227838
0.939231138727
0.816802325506
0.810754753363
0.991350554325
1
1
1
1
1
1
1
1
1
1
1
1
1
1
1
1
1
1
0.988983981239
0.979058261891
0.981768977107
0.998703008147
1
1
1
0.998894615485
0.949251952084
0.911546079655
0.96426423316
0.85602387166
0.86321426385
0.974744306186
0.998992970567
0.99892567156
1
1
1
1
1
1
1
1
1
1
1
1
1
1
1
1
0.995496495605
0.98758020875
0.982829028596
1
1
1
0.999484122914
0.98878771706
0.933952025099
0.983892705676
0.985138029424
0.890227117689
0.832464932288
0.977029778524
0.994888167452
0.99820951946
1
1
1
1
1
1
1
1
1
1
1
1
1
1
1
1
0.997428852775
0.98285537307
0.98039510517
1
1
1
0.999495393521
0.984976482569
0.964998100702
0.953469456045
0.999493779674
0.92434856729
0.842540653564
0.955064449079
0.99325683465
0.997842367404
1
1
1
1
1
1
1
1
1
1
1
1
1
1
1
1
1
0.989140800355
0.985132530894
1
1
1
1
0.986804824057
0.982888701751
0.993010326474
1
0.893308577264
0.806018894679
0.981842136233
0.989179223751
0.997738273039
1
1
1
1
1
1
1
1
1
1
1
1
1
1
1
1
1
0.983956825265
0.997396382611
1
1
1
1
0.991688916154
1
1
1
0.882837301679
0.898710807963
0.973242644554
0.988854351614
0.99928441126
1
1
1
1
1
1
1
1
1
1
1
1
1
1
1
1
1
1
1
1
1
1
1
0.999132831516
1
1
0.99718471197
0.867334695433
0.940701673005
0.986067620115
0.990628859016
0.999080210123
1
1
1
1
1
1
1
1
1
1
1
1
1
1
1
1
1
1
1
1
1
1
1
1
1
1
0.916925291601
0.919739214514
0.977551129972
0.997645786136
0.985695864673
0.99912078916
1
1
1
1
1
1
1
1
1
1
1
1
1
1
1
1
1
1
1
1
1
1
1
0.99271741653
1
0.970948039845
0.905206955002
0.972119860759
0.998796655734
1
1
0.999501972234
1
1
1
1
1
1
1
1
1
1
1
1
1
1
1
1
1
1
1
1
1
1
1
1
1
0.981696363375
0.948549714852
0.993145122859
0.996272948989
1
1
1
1
1
1
1
1
1
1
1
1
1
1
1
1
1
1
1
1
1
1
1
1
1
1
1
1
0.996619788581
0.985275568916
0.994132706624
1
1
1
1
1
1
1
1
1
1
1
1
1
1
1
1
1
1
1
1
1
1
1
1
1
1
1
1
1
1
0.989428740556
0.989651688256
1
1
1
1
1
1
1
1
1
1
1
1
1
1
1
1
1
1
1
1
1
1
1
1
1
1
1
1
1
1
1
1
1
1
1
1
1
1
1
1
1
1
1
1
1
1
1
1
1
1
1
1
1
1
1
1
1
1
1
1
1
1
1
1
1
1
1
1
1
1
1
1
1
1
1
1
1
1
1
1
1
1
1
1
1
1
1
1
1
1
1
1
1
1
1
1
1
1
1
1
1
1
1
1
1
1
1
1
1
1
1
1
1
1
1
1
1
1
1
1
1
1
1
1
1
1
1
1
1
1
1
1
1
1
1
1
1
1
1
1
1
1
1
1
1
1
1
1
1
1
1
1
1
1
1
1
1
1
1
1
1
1
1
1
1
1
1
1
1
1
1
1
1
1
1
1
1
1
1
1
1
1
1
1
1
1
1
1
1
1
1
1
1
1
1
1
1
1
1
1
1
1
1
1
1
1
1
1
1
1
1
1
1
1
1
1
1
1
1
1
1
1
1
1
1
1
1
1
1
1
1
1
1
1
1
1
1
1
1
1
1
1
1
1
1
1
1
1
1
1
1
1
1
1
1
1
1
1
1
1
1
1
1
1
1
1
1
1
1
1
1
1
1
1
1
1
1
1
1
1
1
1
1
1
1
1
1
1
1
1
1
1
1
1
1
1
1
1
1
1
1
1
1
1
1
1
1
1
1
1
1
1
1
1
1
1
1
1
1
1
1
1
1
1
1
1
1
1
1
1
1
1
1
1
1
1
1
1
1
1
1
1
1
1
1
1
1
1
1
1
1
1
1
1
1
1
1
1
1
1
1
1
1
1
1
1
1
1
1
1
1
1
1
1
1
1
1
1
1
1
1
1
1
1
1
1
1
1
1
1
1
1
1
1
1
1
1
1
1
1
1
1
1
1
1
1
1
1
1
1
1
1
1
1
1
1
1
1
1
1
1
1
1
1
1
1
1
1
1
1
1
1
1
1
1
1
1
1
1
1
1
1
1
1
1
1
1
1
1
1
1
1
1
1
1
1
1
1
1
1
1
1
1
1
1
1
1
1
1
1
1
1
1
1
1
1
1
1
1
1
1
1
1
1
1
1
1
1
1
1
1
1
1
1
1
1
1
1
1
1
1
1
1
1
1
1
1
1
1
1
1
1
1
1
1
1
1
1
1
1
1
1
1
1
1
1
1
1
1
1
1
1
1
1
1
1
1
1
1
1
1
1
1
1
1
1
1
1
1
1
1
1
1
1
1
1
1
1
1
1
1
1
1
1
1
1
1
1
1
1
1
1
1
1
1
1
1
1
1
1
1
1
1
1
1
1
1
1
1
1
1
1
1
1
1
1
1
1
1
1
1
1
1
1
1
1
1
1
1
1
1
1
1
1
1
1
1
1
1
1
1
1
1
1
1
1
1
1
1
1
1
1
1
1
1
1
1
1
1
1
1
1
1
1
1
1
1
1
1
1
1
1
1
1
1
1
1
1
1
1
1
1
1
1
1
1
1
1
1
1
1
1
1
1
1
1
1
1
1
1
1
1
1
1
1
1
1
1
1
1
1
1
1
1
1
1
1
1
1
1
1
1
1
1
1
1
1
1
1
1
1
1
1
1
1
1
1
1
1
1
1
1
1
1
1
1
1
1
1
1
1
1
1
1
1
1
1
1
1
1
1
1
1
1
1
1
1
1
1
1
1
1
1
1
1
1
1
1
1
1
1
1
1
1
1
1
1
1
1
1
1
1
1
1
1
1
1
1
1
1
1
1
1
1
1
1
1
1
1
1
1
1
1
1
1
1
1
1
1
1
1
1
1
1
1
1
1
1
1
1
1
1
1
1
1
1
1
1
1
1
1
1
1
1
1
1
1
1
1
1
1
1
1
1
1
1
1
1
1
1
1
1
1
1
1
1
1
1
1
1
1
1
1
1
1
1
1
1
1
1
1
1
1
1
1
1
1
1
1
1
1
1
1
1
1
1
1
1
1
1
1
1
1
1
1
1
1
1
1
1
1
1
1
1
1
1
1
1
1
1
1
1
1
1
1
1
1
1
1
1
1
1
1
1
1
1
1
1
1
1
1
1
1
1
1
1
1
1
1
1
1
1
1
1
1
1
1
1
1
1
1
1
1
1
1
1
1
1
1
1
1
1
1
1
1
1
1
1
1
1
1
1
1
1
1
1
1
1
1
1
1
1
1
1
1
1
1
1
1
1
1
1
1
1
1
1
1
1
1
1
1
1
1
1
1
1
1
1
1
1
1
1
1
1
1
1
1
1
1
1
1
1
1
1
1
1
1
1
1
1
1
1
1
1
1
1
1
1
1
1
1
1
1
1
1
1
1
1
1
1
1
1
1
1
1
1
1
1
1
1
1
1
1
1
1
1
1
1
1
1
1
1
1
1
1
1
1
1
1
1
1
1
1
1
1
1
1
1
1
1
1
1
1
1
1
1
1
1
1
1
1
1
1
1
1
1
1
1
1
1
1
1
1
1
1
1
1
1
1
1
1
1
1
1
1
1
1
1
1
1
1
1
1
1
1
1
1
1
1
1
1
1
1
1
1
1
1
1
1
1
1
1
1
1
1
1
1
1
1
1
1
1
1
1
1
1
1
1
1
1
1
1
1
1
1
1
1
1
1
1
1
1
1
1
1
1
1
1
1
1
1
1
1
1
1
1
1
1
1
1
1
1
1
1
1
1
1
1
1
1
1
1
1
1
1
1
1
1
1
1
1
1
1
1
1
1
1
1
1
1
1
1
1
1
1
1
1
1
1
1
1
1
1
1
1
1
1
1
1
1
1
1
1
1
1
1
1
1
1
1
1
1
1
1
1
1
1
1
1
1
1
1
1
1
1
1
1
1
1
1
1
1
1
1
1
1
1
1
1
1
1
1
1
1
1
1
1
1
1
1
1
1
1
1
1
1
1
1
1
1
1
1
1
1
1
1
1
1
1
1
1
1
1
1
1
1
1
1
1
1
1
1
1
1
1
1
1
1
1
1
1
1
1
1
1
1
1
1
1
1
1
1
1
1
1
1
1
1
1
1
1
1
1
1
1
1
1
1
1
1
1
1
1
1
1
1
1
1
1
1
1
1
1
1
1
1
1
1
1
1
1
1
1
1
1
1
1
1
1
1
1
1
1
1
1
1
1
1
1
1
1
1
1
1
1
1
1
1
1
1
1
1
1
1
1
1
1
1
1
1
1
1
1
1
1
1
1
1
1
1
1
1
1
1
1
1
1
1
1
1
1
1
1
1
1
1
1
1
1
1
1
1
1
1
1
1
1
1
1
1
1
1
1
1
1
1
1
1
1
1
1
1
1
1
1
1
1
1
1
1
1
1
1
1
1
1
1
1
1
1
1
1
1
1
1
1
1
1
1
1
1
1
1
1
1
1
1
1
1
1
1
1
1
1
1
1
1
1
1
1
1
1
1
1
1
1
1
1
1
1
1
1
1
1
1
1
1
1
1
1
1
1
1
1
1
1
1
1
1
1
1
1
1
1
1
1
1
1
1
1
1
1
1
1
1
1
1
1
1
1
1
1
1
1
1
1
1
1
1
1
1
1
1
1
1
1
1
1
1
1
1
1
1
1
1
1
1
1
1
1
1
1
1
1
1
1
1
1
1
1
1
1
1
1
1
1
1
1
1
1
1
1
1
1
1
1
1
1
1
1
1
1
1
1
1
1
1
1
1
1
1
1
1
1
1
1
1
1
1
1
1
1
1
1
1
1
1
1
1
1
1
1
1
1
1
1
1
1
1
1
1
1
1
1
1
1
1
1
1
1
1
1
1
1
1
1
1
1
1
1
1
1
1
1
1
1
1
1
1
1
1
1
1
1
1
1
1
1
1
1
1
1
1
1
1
1
1
1
1
1
1
1
1
1
1
1
1
1
1
1
1
1
1
1
1
1
1
1
1
1
1
1
1
1
1
1
1
1
1
1
1
1
1
1
1
1
1
1
1
1
1
1
1
1
1
1
1
1
1
1
1
1
1
1
1
1
1
1
1
1
1
1
1
1
1
1
1
1
1
1
1
1
1
1
1
1
1
1
1
1
1
1
1
1
1
1
1
1
1
1
1
1
1
1
1
1
1
1
1
1
1
1
1
1
1
1
1
1
1
1
1
1
1
1
1
1
1
1
1
1
1
1
1
1
1
1
1
1
1
1
1
1
1
1
1
1
1
1
1
1
1
1
1
1
1
1
1
1
1
1
1
1
1
1
1
1
1
1
1
1
1
1
1
1
1
1
1
1
1
1
1
1
1
1
1
1
1
1
1
1
1
1
1
1
1
1
1
1
1
1
1
1
1
1
1
1
1
1
1
1
1
1
1
1
1
1
1
1
1
1
1
1
1
1
1
1
1
1
1
1
1
1
1
1
1
1
1
1
1
1
1
1
1
1
1
1
1
1
1
1
1
1
1
1
1
1
1
1
1
1
1
1
1
1
1
1
1
1
1
1
1
1
1
1
1
1
1
1
1
1
1
1
1
1
1
1
1
1
1
1
1
1
1
1
1
1
1
1
1
1
1
1
1
1
1
1
1
1
1
1
1
1
1
1
1
1
1
1
1
1
1
1
1
1
1
1
1
1
1
1
1
1
1
1
1
1
1
1
1
1
1
1
1
1
1
1
1
1
1
1
1
1
1
1
1
1
1
1
1
1
1
1
1
1
1
1
1
1
1
1
1
1
1
1
1
1
1
1
1
1
1
1
1
1
1
1
1
1
1
1
1
1
1
1
1
1
1
1
1
1
1
1
1
1
1
1
1
1
1
1
1
1
1
1
1
1
1
1
1
1
1
1
1
1
1
1
1
1
1
1
1
1
1
1
1
1
1
1
1
1
1
1
1
1
1
1
1
1
1
1
1
1
1
1
1
1
1
1
1
1
1
1
1
1
1
1
1
1
1
1
1
1
1
1
1
1
1
1
1
1
1
1
1
1
1
1
1
1
1
1
1
1
1
1
1
1
1
1
1
1
1
1
1
1
1
1
1
1
1
1
1
1
1
1
1
1
1
1
1
1
1
1
1
1
1
1
1
1
1
1
1
1
1
1
1
1
1
1
1
1
1
1
1
1
1
1
1
1
1
1
1
1
1
1
1
1
1
1
1
1
1
1
1
1
1
1
1
1
1
1
1
1
1
1
1
1
1
1
1
1
1
1
1
1
1
1
1
1
1
1
1
1
1
1
1
1
1
1
1
1
1
1
1
1
1
1
1
1
1
1
1
1
1
1
1
1
1
1
1
1
1
1
1
1
1
1
1
1
1
1
1
1
1
1
1
1
1
1
1
1
1
1
1
1
1
1
1
1
1
1
1
1
1
1
1
1
1
1
1
1
1
1
1
1
1
1
1
1
1
1
1
1
1
1
1
1
1
1
1
1
1
1
1
1
1
1
1
1
1
1
1
1
1
1
1
1
1
1
1
1
1
1
1
1
1
1
1
1
1
1
1
1
1
1
1
1
1
1
1
1
1
1
1
1
1
1
1
1
1
1
1
1
1
1
1
1
1
1
1
1
1
1
1
1
1
1
1
1
1
1
1
1
1
1
1
1
1
1
1
1
1
1
1
1
1
1
1
1
1
1
1
1
1
1
1
1
1
1
1
1
1
1
1
1
1
1
1
1
1
1
1
1
1
1
1
1
1
1
1
1
1
1
1
1
1
1
1
1
1
1
1
1
1
1
1
1
1
1
1
1
1
1
1
1
1
1
1
1
1
1
1
1
1
1
1
1
1
1
1
1
1
1
1
1
1
1
1
1
1
1
1
1
1
1
1
1
1
1
1
1
1
1
1
1
1
1
1
1
1
1
1
1
1
1
1
1
1
1
1
1
1
1
1
1
1
1
1
1
1
1
1
1
1
1
1
1
1
1
1
1
1
1
1
1
1
1
1
1
1
1
1
1
1
1
1
1
1
1
1
1
1
1
1
1
1
1
1
1
1
1
1
1
1
1
1
1
1
1
1
1
1
1
1
1
1
1
1
1
1
1
1
1
1
1
1
1
1
1
1
1
1
1
1
1
1
1
1
1
1
1
)
;

boundaryField
{
    top
    {
        type            calculated;
        value           uniform 1;
    }
    ground
    {
        type            calculated;
        value           nonuniform List<scalar> 
32
(
0.25
0.327249862758
0.25
0.25
0.25
0.353561684784
0.25
0.25
0.286605207487
0.410517644426
0.40573888886
0.25
0.25
0.365435389165
0.270259700046
0.342751482957
0.25
0.25
0.25
0.25
0.30878597205
0.332346206745
0.266165054865
0.25
0.327636409987
0.25
0.25
0.25
0.25
0.304862753217
0.25
0.25
)
;
    }
    inlet
    {
        type            cyclic;
    }
    outlet
    {
        type            cyclic;
    }
    front
    {
        type            cyclic;
    }
    back
    {
        type            cyclic;
    }
}


// ************************************************************************* //
