/*--------------------------------*- C++ -*----------------------------------*\
| =========                 |                                                 |
| \\      /  F ield         | OpenFOAM: The Open Source CFD Toolbox           |
|  \\    /   O peration     | Version:  v2012                                 |
|   \\  /    A nd           | Website:  www.openfoam.com                      |
|    \\/     M anipulation  |                                                 |
\*---------------------------------------------------------------------------*/
FoamFile
{
    version     2.0;
    format      ascii;
    class       volScalarField;
    location    "3.3";
    object      k.air;
}
// * * * * * * * * * * * * * * * * * * * * * * * * * * * * * * * * * * * * * //

dimensions      [0 2 -2 0 0 0 0];


internalField   nonuniform List<scalar> 
4480
(
6.14218121361e-05
5.52205530365e-05
2.57428708463e-05
1.83587986355e-05
5.27789535082e-06
3.99213085313e-06
3.68350982245e-06
8.28790604115e-06
8.57166585446e-06
6.59122115272e-06
1.03476271148e-05
4.13388249547e-06
1.51703773689e-06
8.25980001147e-07
2.34720217816e-07
1.00856894674e-07
6.47023415733e-08
1.81858134395e-08
3.57281966096e-09
2.59376070814e-09
1.80392841901e-09
9.55780951901e-10
1.69574588626e-09
3.79713762568e-09
2.24052688054e-08
1.08146691955e-07
5.35642051625e-07
2.42487132664e-06
9.85516033761e-06
1.780547618e-05
3.08665522522e-05
3.31414356014e-05
0.000292859129531
0.000283846835444
0.00013833143223
8.36172751599e-05
3.86477000459e-05
2.05366945661e-05
2.76894051945e-05
4.11212415074e-05
5.46130618802e-05
4.17512878465e-05
7.82923579373e-05
2.57034472481e-05
8.50447743739e-06
4.22043320584e-06
1.54274293663e-06
9.83413143029e-07
7.73879285905e-07
3.13901632477e-07
5.98609546381e-08
4.23299827676e-08
2.59312971099e-08
1.48467383135e-08
1.57445167165e-08
2.69625533025e-08
1.09849091715e-07
5.71286225853e-07
3.38088148201e-06
1.85118388122e-05
5.4492605541e-05
6.41139868679e-05
0.000161559893084
0.000165995802146
0.000873558248115
0.00101751644516
0.000457029048785
0.000290911555141
0.000157645263315
8.24222979327e-05
0.000108508936748
0.000207230931375
0.000285148334886
0.000217412310423
0.000337481243987
0.000107585085136
3.63082496872e-05
1.86276769429e-05
8.6243239941e-06
6.01956476751e-06
4.44503238788e-06
1.90379244977e-06
4.13818591518e-07
3.66918209324e-07
2.08763533347e-07
1.53265674921e-07
1.15808760427e-07
1.66977917719e-07
3.84170483421e-07
2.05688827976e-06
1.39097621766e-05
8.08996723997e-05
0.0001491339374
0.000215121593743
0.000462678493076
0.000557793902868
0.00211082555674
0.00215685804387
0.00131403495529
0.000719058544638
0.000454245364746
0.000221470389125
0.000284950240169
0.000603553486365
0.000918469613924
0.000882094484017
0.000859361486562
0.00036260696653
0.000111680897337
7.01435410173e-05
3.55681930705e-05
2.4861336741e-05
1.65639902608e-05
8.91873237402e-06
2.25737324676e-06
2.38505650279e-06
1.30676058658e-06
1.14876361531e-06
5.52542103804e-07
4.69962963203e-07
1.51007103997e-06
6.76552465521e-06
4.0679451501e-05
0.000171970116381
0.000296509715579
0.000475925989081
0.000965412746629
0.0013848614168
0.00357076548572
0.00415242212575
0.00299141008849
0.00165009264194
0.000766390442103
0.000404337970875
0.000700459086533
0.0014376938829
0.00221394185935
0.00154040091993
0.00131191176527
0.000713517323407
0.000346767754601
0.000238504148699
0.000131077461
8.46290092469e-05
4.6973290112e-05
3.11143320524e-05
1.0687693002e-05
1.21767695446e-05
7.39099595773e-06
3.87076256598e-06
1.96341095021e-06
1.57002136431e-06
5.14342403877e-06
1.89101876499e-05
8.82190268268e-05
0.00031834201514
0.000603036446641
0.000985784437826
0.00162495489691
0.00242670411259
0.00587883060278
0.0063111564201
0.00422398924366
0.00280058409704
0.00136948864561
0.000871753588199
0.00146018996108
0.002764439114
0.00458571942352
0.00326360337518
0.00251526330376
0.00140644605543
0.00081336943074
0.00066409051843
0.000366806301108
0.000243624842784
0.000157118103541
0.000107417227192
4.68843253865e-05
4.77543442324e-05
2.81290721315e-05
1.46307938288e-05
5.52302293445e-06
4.23225347401e-06
1.10494715574e-05
4.59121859761e-05
0.000153683537254
0.000548074613546
0.00104520331073
0.00156823522245
0.00289730533108
0.00435378254506
0.00815939239277
0.0101521561582
0.00567902666835
0.00380145468463
0.00241307300251
0.00166856879354
0.00264466492158
0.00462446618766
0.00619917806647
0.00518729956561
0.0036447862413
0.00258647343016
0.00181473463883
0.00123869954349
0.000754063107322
0.000613382943129
0.000489140071295
0.000276020785611
0.000205110577154
0.000152132498724
9.97591362831e-05
3.89600978594e-05
1.63835097994e-05
9.57277238569e-06
1.97066682269e-05
7.94371725519e-05
0.000319511198062
0.000889502098672
0.00187519493594
0.00259527224575
0.00428318580633
0.00617040574862
0.010876092847
0.0111379062113
0.00690692451508
0.00590074880238
0.00458423342127
0.00356749692851
0.00434891784782
0.0057786764828
0.00794468927899
0.0063705306377
0.00521253698211
0.00419349185145
0.00309162356293
0.00238386634943
0.00162264653426
0.00128245616863
0.000921242979637
0.000701864691959
0.0005875879585
0.00041514221724
0.000264788163617
0.000118755562086
4.630933664e-05
2.36049996864e-05
4.20795964927e-05
0.000161693521961
0.00049377054141
0.00145857024591
0.00279701574956
0.00462989259088
0.00592318065924
0.00922153330958
0.0125333860588
0.0118301748187
0.00874868361419
0.007746221815
0.0072703836781
0.00616428826368
0.00681934159579
0.00740057066437
0.00819053451622
0.00764136268721
0.00642223800661
0.00623966901978
0.00498088765787
0.00426068677634
0.00310450518436
0.00255642498187
0.00194113775675
0.00139759337274
0.00155645100669
0.000968671211132
0.000712345285895
0.000371853160431
0.000132213592758
5.34895772411e-05
9.05737292329e-05
0.000338965340073
0.000861064227034
0.00198550389231
0.0040388505374
0.00533310457808
0.00781505043082
0.0101089996747
0.0131155597608
0.0121422716968
0.0101254084455
0.0110565058706
0.00761099993042
0.00755944007349
0.0086516128519
0.00848196795028
0.00831299946966
0.00858513493554
0.00785401212344
0.00774834473132
0.00654519471169
0.00643557993811
0.00507272889525
0.00412885322655
0.00320400574947
0.00280205711424
0.00275270344045
0.0021534619578
0.00168690596632
0.000782229434945
0.000343427622974
0.000113327243284
0.000177942436651
0.000548126416543
0.00135792999064
0.00337913024337
0.00609046120373
0.00691791063775
0.00978415208938
0.0108589640652
0.0141933296172
0.0134582542435
0.0129491710565
0.0122035514109
0.00870367103752
0.00977627833782
0.0113134108075
0.00977137794738
0.00953808129944
0.00912905699667
0.00846286947245
0.00889219349682
0.00911070433063
0.0100241222698
0.00707665197304
0.00645998918228
0.00536192580815
0.00487924096976
0.00547389796534
0.00436653818661
0.00315955149671
0.00167114373739
0.000652095420643
0.000222779946684
0.000276178101409
0.000965212705086
0.00226435403737
0.00488727485141
0.00812436244892
0.00921227302943
0.0115995345803
0.0117559031492
0.0146600013562
0.0150043789696
0.0177552684986
0.0158724561118
0.0114410475023
0.013765762996
0.0134041167841
0.0109333224413
0.00989781046839
0.00982510618324
0.00950747486555
0.00997868347455
0.00938652559766
0.0116088249881
0.0104876963739
0.00928911170128
0.00872493532611
0.00780798023485
0.00805397781867
0.00778916708264
0.0054207251955
0.002576158085
0.00112127516447
0.000404527516501
0.000476152772007
0.00138818100435
0.00355493745198
0.00735318381517
0.0104631453935
0.0117028400978
0.0124103292088
0.0126806006816
0.014694441259
0.0171130034422
0.0212615995511
0.0213672555046
0.0162009284267
0.017668650755
0.0173260208117
0.0123837132247
0.0105154550204
0.010738207841
0.0100413154864
0.0104137189751
0.0105785238147
0.0120149125725
0.012946317328
0.0137415353963
0.012476886125
0.0127745300126
0.0119843563401
0.0106506194202
0.00809020788223
0.00410824370107
0.00160314866531
0.000651711158599
0.000731798937097
0.00201909994728
0.00479741506891
0.00967219967743
0.0122124333591
0.013079025635
0.0133523172801
0.0133587985058
0.0159288082476
0.0191670283444
0.0259259534175
0.0293956787482
0.023014518581
0.0224261641744
0.0214368285777
0.0124794361422
0.0103976041257
0.011385724201
0.0100320837673
0.0106728323033
0.0108380227831
0.0129202945115
0.0143154759518
0.0175154299243
0.0180194238005
0.0182104091816
0.0161607530827
0.0145890141799
0.0113968774716
0.00563842350876
0.00197407538476
0.000836893220768
0.000893147446029
0.00261359453352
0.00650349784872
0.011157282897
0.0147179048903
0.0148230175391
0.014733987313
0.0152371650724
0.0158800043842
0.0215657463041
0.0278193553315
0.0358865851312
0.0314705346174
0.0292750509013
0.0252221891615
0.0138771276117
0.0102982666346
0.0107703802964
0.00991080703332
0.0101190835292
0.0112202583513
0.0131237513975
0.0157609854011
0.0181082377875
0.0200553537669
0.0254831016394
0.0196669417833
0.0189156940458
0.0140256597653
0.0074042908668
0.00256380231476
0.00108150090327
0.00118420429257
0.00316013579099
0.00620449282772
0.011577673669
0.0153499030093
0.0158508372223
0.0163679154373
0.0186460487202
0.0176703498941
0.0231135787032
0.0320520477454
0.0464793687427
0.0424848167859
0.0389045022483
0.027027747993
0.0155277709252
0.00952137548575
0.00972445772499
0.00979691909597
0.00938196285158
0.0101990435651
0.0128154654985
0.0162500832087
0.0195455614197
0.0212837671954
0.0264287226711
0.0232499378181
0.0251278196341
0.0164607140483
0.00889533543644
0.00328276721419
0.00136150567751
0.00140748772652
0.00294817424109
0.00591924032866
0.0107270347421
0.016172110257
0.0160607279874
0.0169969218072
0.0171405353403
0.0173094728237
0.0230354009427
0.0352954400897
0.0564344264032
0.052292932118
0.0525211339939
0.0315653130979
0.0150718191111
0.00941630790231
0.00938830519572
0.00884304768384
0.00842471470132
0.00945830610099
0.0127732912851
0.0167855456978
0.0193241197818
0.0216515565082
0.0264574963368
0.0242698060597
0.0282353818794
0.0203967170046
0.0095675460101
0.00375108823642
0.00145623124303
0.00138719509627
0.0027631289592
0.00560224346073
0.00957248696551
0.0144042444645
0.0158620087528
0.0164675600745
0.0159813903593
0.0165119184069
0.0246997166487
0.0349295667386
0.0608872566478
0.0631213194618
0.0641460312948
0.0384886087448
0.0153448010101
0.00856713978793
0.00808965991286
0.00791534897435
0.00702087568384
0.00797229166258
0.011505012952
0.0160330169224
0.0188253341916
0.0200654579729
0.0248299260176
0.0226254444591
0.0261312272751
0.020642017785
0.00992883200518
0.00366887079339
0.00141005696114
0.00135662735079
0.00277719738352
0.00547486624646
0.00854212394597
0.0136480752008
0.0155565295826
0.0163607214407
0.0162445047383
0.0160975363704
0.0248450074389
0.0355186350591
0.062929533574
0.072805058732
0.0702929576904
0.0456051467735
0.0155523372353
0.00786459233579
0.00701289095076
0.00619539562077
0.00544527901906
0.00642458776109
0.0095428777034
0.0132889328789
0.017850788112
0.0185758317128
0.020976418777
0.0198300116069
0.0236119067376
0.0180622490424
0.00927834057794
0.0032744416525
0.00136562098385
0.00136964282957
0.00282141815406
0.00512898232479
0.00755299682735
0.0116137504979
0.0141283192452
0.0155854969187
0.0152440006597
0.0153147898942
0.0235407978537
0.034548341169
0.0634946281553
0.0804552867171
0.0753909311862
0.0494870600989
0.017119503951
0.00705525889452
0.00585102938858
0.00471504148293
0.00429596683009
0.00432911671221
0.00729800004431
0.0107849904944
0.0156550391877
0.0154977671511
0.017749710423
0.0163917283321
0.0195547662941
0.0146751766695
0.00905532863199
0.00316483132485
0.00138732841859
0.00146216351155
0.00294890502215
0.00477700567347
0.00631088645226
0.00952156597679
0.0129288207696
0.0141448468375
0.014646358455
0.013964202477
0.0189131845026
0.0308432615293
0.0638740661759
0.084807014234
0.0812016189056
0.0554434133522
0.0179105161536
0.00646384544573
0.00470563231338
0.00312732785687
0.00266478516338
0.00233066908109
0.00476890338526
0.00774621122458
0.012923046355
0.0115305262175
0.0137034038924
0.0128872330161
0.0151098674576
0.0118510517282
0.00910057487141
0.00413836157023
0.00171114782741
0.00163336070651
0.00296348952514
0.00412053672679
0.00510785787026
0.00765319555858
0.0109878976714
0.012791011306
0.0135648436535
0.0117533634864
0.0157381880731
0.028069706094
0.0620039737826
0.085209184078
0.086473511706
0.0578341641079
0.0185301452066
0.00537267905631
0.00347868124797
0.00184230526722
0.00136152265392
0.000938208465063
0.00250686495779
0.00456404269065
0.00945930223265
0.00758262971866
0.00964331786199
0.00931067126116
0.011179675317
0.009544629887
0.00735499396935
0.00512690112174
0.0025703423396
0.00186543360164
0.00297240250458
0.00357206750059
0.00453890086058
0.00619748340169
0.0088109266637
0.0109086150166
0.0122404674661
0.0087160946424
0.0125493660899
0.0232752225363
0.054602521666
0.0826209353087
0.0869559346058
0.0621999333045
0.0205716795355
0.00490749792036
0.00237412786719
0.000978074023702
0.000623169407771
0.000311003682968
0.00109362250106
0.00221165412395
0.00540573170973
0.00432207541262
0.00622756096528
0.00658605036116
0.00825748956048
0.00767747399215
0.00651559054194
0.00450425434539
0.00321091272976
0.00242334209214
0.00293130850233
0.00327712421318
0.00399830971777
0.00541062697873
0.00687364302131
0.0101907650143
0.00953719484218
0.00634965892666
0.0102022512747
0.0193116370539
0.0503132738994
0.0802595684136
0.0890281234926
0.0669097702555
0.0214540243813
0.00446183396338
0.00161143303475
0.000497437792491
0.000248720259923
8.81436129571e-05
0.000405718938502
0.000898584670054
0.00240809186505
0.00230333175643
0.00388916558908
0.00453025035329
0.00588678808441
0.00610757804668
0.00443610269523
0.00341844822972
0.00251915382891
0.00257007060758
0.00297771214353
0.00299939454355
0.00366180032423
0.00370717178432
0.00467660575532
0.00861943368437
0.00771952235905
0.00383710385461
0.00710363141379
0.0151551832004
0.0440541102353
0.0734837764206
0.0855568166655
0.0636820838782
0.0239402730606
0.00339706941925
0.000881072499912
0.00021332078372
8.34286548539e-05
2.47958010406e-05
0.000121113618621
0.000314960276465
0.000850652891233
0.00111011659033
0.00217061438677
0.00295431587061
0.00460777772526
0.00409029540535
0.00255890761907
0.00213368290156
0.00207907937883
0.00227862298476
0.00267754076619
0.00293792629876
0.00276770089033
0.00287733427704
0.00373411547346
0.00500895396203
0.00536430451192
0.00213800507527
0.00431638117936
0.0121145641689
0.0367973275084
0.0695545210127
0.0830264779218
0.0614055874746
0.0228845430081
0.00336939615839
0.000578262502018
0.000108142266793
2.45291889747e-05
5.7873372563e-06
3.06858310153e-05
8.98048835086e-05
0.000254488217213
0.000458919875991
0.00115088089331
0.00168270637444
0.00282792541108
0.00213033411215
0.00159560902821
0.00132964953061
0.00152597539681
0.00188583431262
0.00230241337128
0.00262861334707
0.00222382952954
0.00201015762014
0.00258142075821
0.0039716608116
0.00361966288808
0.00108695403708
0.00229108467586
0.00734396624152
0.0303541611602
0.0592456980876
0.0793712915949
0.0587512188402
0.020110114367
0.00283208091499
0.000353504374393
6.19315100385e-05
6.43101341265e-06
1.67101057975e-06
7.37519466447e-06
2.1720108418e-05
5.38502218194e-05
0.000103363797998
0.000412288650598
0.000687242159012
0.00108929005665
0.00118418687929
0.000986427514888
0.000949836476377
0.00116019946823
0.00164554390924
0.00194649133347
0.00226801780148
0.00188710028876
0.00143990465483
0.00156606945626
0.00251074072092
0.00227744712558
0.000568707969886
0.000999080951729
0.00420685674871
0.0257694356591
0.0553722418086
0.0698529493299
0.052664416885
0.0194264381814
0.00295676279188
0.000319351940366
4.77219911861e-05
3.95568388735e-06
7.75852909933e-07
2.13757676479e-06
4.72783477939e-06
1.43029452429e-05
2.32706801745e-05
0.00011407902623
0.000262325910362
0.00046233127766
0.000669872017084
0.000688162566561
0.000813018293465
0.000927911361401
0.00133898348918
0.00181456805065
0.00196017301158
0.00141941945699
0.000976566925881
0.000976544625732
0.00162589466562
0.0013680325817
0.000304481305184
0.000401014676147
0.00245022327677
0.0192780101036
0.0465688176111
0.0594052934629
0.0481656722399
0.0164466710662
0.0020840740729
0.000161447316757
2.1532612198e-05
7.56192271242e-07
4.27256159916e-07
8.39644110638e-07
1.90865339983e-06
4.54282648627e-06
7.03542690032e-06
4.09924779052e-05
0.000124899003346
0.000246463817966
0.000389783297447
0.000530721659883
0.000695649895536
0.000812796151697
0.00104707451848
0.00150337425808
0.00144746296399
0.00102183249531
0.000708520790766
0.000634285418399
0.000942829074101
0.000752366702706
0.000163084162292
0.000156339545483
0.00114734854403
0.0118892437692
0.0351864107609
0.0517609598213
0.0429617976552
0.0146570533098
0.00164468789909
0.000125696938072
1.373530508e-05
3.46524434539e-07
3.60165930867e-07
6.81474986808e-07
1.30711700081e-06
2.41393139145e-06
5.161872398e-06
1.79447054581e-05
6.78352007618e-05
0.00014500952618
0.0002872970459
0.000442401548269
0.000611847082058
0.000731152134647
0.000822460553712
0.00102007751051
0.000986890895339
0.000693583097322
0.000515977088155
0.000435393014544
0.0005608595274
0.000384563539779
9.31707566715e-05
6.89677305005e-05
0.000432375421732
0.00660650676339
0.030382816782
0.0456147981393
0.036096410313
0.0136910890611
0.00128262297067
9.65747439742e-05
9.00797338322e-06
2.57967748133e-07
3.44601188891e-07
6.92926465386e-07
1.30573610484e-06
2.43746042479e-06
5.43711352164e-06
1.34207084096e-05
4.51921341535e-05
0.000109023707787
0.00024218715523
0.000387004758443
0.000550349754766
0.000669495857981
0.00074829708403
0.000836396615244
0.000712505026159
0.000477559589444
0.000386997665945
0.000324496057572
0.000304980967994
0.000186898763834
6.05751534971e-05
3.83458993799e-05
0.000182406458001
0.00406278993201
0.0234678739308
0.0348078321789
0.0297591489279
0.01128487787
0.00123938468131
6.27027538038e-05
5.22882812067e-06
1.74080084898e-07
2.7054345685e-07
6.20598684744e-07
1.30351939666e-06
2.74925334283e-06
6.35661682719e-06
1.41292594413e-05
3.92873230312e-05
9.33215617205e-05
0.000214064668767
0.000346627713135
0.000499964584003
0.000617005155162
0.000689382975726
0.000743956160987
0.000549260343182
0.000355199594351
0.000279945825986
0.000250321635186
0.00020592884656
0.000111479692437
5.23369604189e-05
2.92002766417e-05
8.97636968258e-05
0.00232611148554
0.0152188982431
0.028946679428
0.0230331405363
0.00884010295714
0.000980288223818
3.42958121263e-05
2.518380482e-06
1.40236934209e-07
2.30236462409e-07
5.28896005669e-07
1.23346378005e-06
2.91721526429e-06
6.97991357151e-06
1.59057377364e-05
3.74616494359e-05
8.61018836439e-05
0.000194919403182
0.000313692854524
0.000455560747932
0.000569696691837
0.000651371041854
0.000619169633231
0.000429462218457
0.000268492273611
0.000185347604845
0.000183851660607
0.000159483528493
0.000102051424952
4.91251328866e-05
2.65451786597e-05
5.51762767178e-05
0.00123986740736
0.0099511689135
0.0221136363749
0.0187767089048
0.0068851331639
0.00069774489173
2.57666618527e-05
1.38674572509e-06
1.16968399742e-07
1.72997045498e-07
4.35821831693e-07
1.10539753404e-06
2.89872912818e-06
7.35345222358e-06
1.73342492667e-05
3.70911818086e-05
8.26436050818e-05
0.000179314663832
0.000283413887064
0.000412889685231
0.000525725996582
0.00061519211869
0.000511623864328
0.00033668869162
0.000200274110948
0.000126675393697
0.000124018479596
0.000115989447482
8.36681319647e-05
4.17227868968e-05
2.36086073198e-05
4.03850732908e-05
0.00069514137961
0.00653576904083
0.0154720707581
0.0147845972076
0.00515569908241
0.000423121232523
1.48221243981e-05
6.12267581471e-07
9.53422383202e-08
1.33960099141e-07
3.500738214e-07
9.37421304704e-07
2.67820901805e-06
7.27202023281e-06
1.77643822268e-05
3.66814118882e-05
7.99416626782e-05
0.000164131521397
0.000253289213363
0.000368914110064
0.000479171061228
0.000538596709138
0.000412774451563
0.000255969829196
0.000143990236834
8.56202812645e-05
7.74137894879e-05
7.78781314754e-05
6.32606301894e-05
3.1308625144e-05
1.84376717421e-05
3.14821179374e-05
0.000457077535154
0.00423940510676
0.0111170644112
0.0115405488402
0.00353749585783
0.000305121349941
1.00727921129e-05
3.68031681256e-07
6.436034719e-08
8.91138161318e-08
2.51754723793e-07
7.38352036939e-07
2.27784344023e-06
6.66628478406e-06
1.7021215733e-05
3.53401773199e-05
7.62273027632e-05
0.000148107114652
0.000222114761497
0.000322869576067
0.000425562136498
0.000448609750119
0.000326346540319
0.000190864828436
0.000100498604532
5.59454626343e-05
4.52484472566e-05
4.84400824009e-05
4.36010772469e-05
2.08374740291e-05
1.20623493503e-05
2.70160861382e-05
0.000312642505729
0.00256425655847
0.00733074189919
0.00869352614574
0.00252962652258
0.000221929210118
9.67462665943e-06
2.7192606274e-07
3.69680339273e-08
5.27071400623e-08
1.61240658439e-07
5.27731304468e-07
1.76866076948e-06
5.61851048489e-06
1.52373577896e-05
3.25642862641e-05
7.02670463914e-05
0.000129961112777
0.000189802439128
0.000275479150244
0.000366918212914
0.000365105064118
0.000253319189208
0.000138379527823
6.71561976506e-05
3.46914107109e-05
2.53353256671e-05
2.82824632013e-05
2.80210210644e-05
1.26329160512e-05
6.87468011472e-06
2.52483497697e-05
0.000224594597625
0.00149574918748
0.00518913768746
0.00648378100565
0.00168138864143
0.000139677774028
5.70360079428e-06
2.33437239966e-07
1.97308024961e-08
2.7951182187e-08
9.25183619962e-08
3.39072767863e-07
1.24377201747e-06
4.32051503609e-06
1.27205761015e-05
2.83101491188e-05
6.1560387672e-05
0.000109861639379
0.000157352753148
0.000228398679676
0.000306460975451
0.000290410473135
0.000191086187366
9.60848481357e-05
4.22640348133e-05
2.00783257716e-05
1.38275150974e-05
1.64459544339e-05
1.73941343525e-05
6.78156164269e-06
3.33970760976e-06
2.46822745623e-05
0.000175259437936
0.00100488053183
0.00446467880539
0.0042076805516
0.00105556959067
8.85503799471e-05
3.74828597116e-06
2.26659061077e-07
1.15696923872e-08
1.32658849755e-08
4.69643520887e-08
1.94017380259e-07
7.86098685566e-07
3.02006403536e-06
9.79937186272e-06
2.30518836293e-05
5.07454756257e-05
8.89286450589e-05
0.000126190219361
0.0001835583886
0.000247157999559
0.000223958953114
0.000138389762567
6.29785676461e-05
2.46800586042e-05
1.07315491589e-05
7.44624457392e-06
1.06329050093e-05
1.09342661704e-05
2.9599797411e-06
1.4227822065e-06
2.1802646313e-05
0.000153477493712
0.000886821578553
0.00333740138549
0.00265997288292
0.000647086845785
4.63411046742e-05
2.26120484803e-06
2.37442226844e-07
8.52940558405e-09
5.8838640276e-09
2.07710582427e-08
9.77798412782e-08
4.42789428473e-07
1.90404408465e-06
6.83491561485e-06
1.75044021615e-05
3.9176128907e-05
6.86525468618e-05
9.76356131773e-05
0.000142643397575
0.000191137185872
0.000165876721239
9.51088033334e-05
3.8462743816e-05
1.32024320702e-05
5.30008904011e-06
4.36029149494e-06
8.57576096426e-06
6.23728819393e-06
9.06460300406e-07
5.16427015893e-07
1.73032872862e-05
0.000136092337832
0.000686431624183
0.00206919273347
0.001571649884
0.000382767808301
2.52943460729e-05
1.65710674259e-06
2.58783298399e-07
7.9678876795e-09
2.88217354101e-09
7.92651213249e-09
4.28993304993e-08
2.20277756351e-07
1.07312627887e-06
4.26860548919e-06
1.23431103129e-05
2.82439547407e-05
5.0338411753e-05
7.26185656749e-05
0.000106825864769
0.000141051467096
0.000116853645406
6.13567314802e-05
2.16436302618e-05
6.41042633002e-06
2.49606727566e-06
3.39444382179e-06
7.4329911912e-06
2.60534290574e-06
1.92323874304e-07
1.78813486392e-07
1.04598748315e-05
9.9104119704e-05
0.00045714128313
0.00116527972754
0.000889480873811
0.000226814505129
1.62771560427e-05
1.33184449204e-06
2.77714497886e-07
8.60968444328e-09
2.04999469403e-09
2.66448789644e-09
1.62197808978e-08
9.60566147065e-08
5.37720840337e-07
2.38592005427e-06
8.01392366226e-06
1.89452559215e-05
3.48598312088e-05
5.16374721272e-05
7.67420824265e-05
9.90483253904e-05
7.75218302741e-05
3.67837559151e-05
1.11328403766e-05
2.82807435917e-06
1.24472739015e-06
3.20503449703e-06
5.79665036547e-06
7.29650197178e-07
2.90540085692e-08
6.85212287832e-08
4.75642474013e-06
5.90996602904e-05
0.000271124995919
0.000610755455049
0.000485512362796
0.00012781905586
1.00030702641e-05
1.12981482638e-06
2.80529671064e-07
9.92567530464e-09
2.11135064921e-09
9.23418586737e-10
5.26906754152e-09
3.65790481753e-08
2.38815098835e-07
1.19346268639e-06
4.69578481782e-06
1.17506714419e-05
2.26211155905e-05
3.48250147381e-05
5.25548381972e-05
6.55862147205e-05
4.78809668708e-05
2.03070960412e-05
5.23380593298e-06
1.16976262774e-06
8.10632818547e-07
2.77843399967e-06
4.11476526916e-06
1.4441286297e-07
4.70511393077e-09
3.77293633562e-08
1.97698209316e-06
3.70413680509e-05
0.000163251807289
0.00031870571573
0.000253048321236
6.99812413473e-05
6.6419057508e-06
9.77118814144e-07
2.58037122941e-07
1.17773067676e-08
2.49092631889e-09
5.03842175304e-10
1.50073107265e-09
1.22135624255e-08
9.36763110493e-08
5.31857464654e-07
2.38023322681e-06
6.66796570546e-06
1.36101262737e-05
2.2030875075e-05
3.40164419747e-05
4.03919969412e-05
2.71579911379e-05
1.02563479542e-05
2.29417747907e-06
4.94860044484e-07
6.32655730354e-07
2.2022101812e-06
2.74570496748e-06
2.85887466182e-08
2.2694257689e-09
3.309571675e-08
7.69201623483e-07
2.50210547089e-05
9.90049481573e-05
0.000168244869014
0.000130667882114
3.98165398057e-05
4.78516019781e-06
8.25398757592e-07
2.14034629426e-07
1.39667187452e-08
2.98521489816e-09
4.85648515551e-10
4.1739673694e-10
3.73141859957e-09
3.26166434276e-08
2.07637027717e-07
1.02700312344e-06
3.39064734076e-06
7.48374882822e-06
1.28797001768e-05
2.05145847391e-05
2.2691016605e-05
1.39106222554e-05
4.72910549147e-06
9.91041042901e-07
2.4734033692e-07
4.25019188303e-07
1.55783497226e-06
1.91441229211e-06
6.77122054158e-09
1.65682128941e-09
3.23226314877e-08
4.21138666065e-07
1.80015967813e-05
5.9017642721e-05
8.88769974142e-05
6.90988785868e-05
2.50011168455e-05
4.09209242269e-06
7.07798621647e-07
1.61893984848e-07
1.62133568558e-08
3.53211022324e-09
5.70595244808e-10
1.56185560791e-10
1.0444075986e-09
9.8240902523e-09
6.92120125664e-08
3.79528769985e-07
1.48112027931e-06
3.67858893397e-06
6.81485758595e-06
1.11998852936e-05
1.13136623587e-05
6.30328456242e-06
2.03966747722e-06
4.39170366423e-07
1.13066299249e-07
2.16043455872e-07
9.05389339763e-07
1.23189475733e-06
2.58739922605e-09
1.25958371044e-09
2.95976540274e-08
3.94197568309e-07
1.34250621589e-05
3.30430975267e-05
4.468636786e-05
3.68674592966e-05
1.66080176605e-05
3.1351408766e-06
6.27814552684e-07
1.16567414495e-07
1.95837943711e-08
4.08440062734e-09
6.79507794773e-10
9.91795842968e-11
2.57113504479e-10
2.51739026142e-09
1.94383682261e-08
1.17222860801e-07
5.16399608271e-07
1.54789803143e-06
3.15416978255e-06
5.27115112761e-06
4.83142026279e-06
2.52160070666e-06
7.94631345221e-07
1.71410729621e-07
4.10311531739e-08
7.33083766959e-08
3.8660986569e-07
5.92861305144e-07
1.46338805835e-09
9.64689144761e-10
2.5070242742e-08
3.53776256854e-07
9.15593885441e-06
1.60946907816e-05
1.95893608032e-05
1.9313213453e-05
1.05517078254e-05
2.23534048507e-06
5.5028331007e-07
9.30122641319e-08
1.98530424757e-08
4.06453618201e-09
6.73369400148e-10
8.24197123695e-11
5.8902432527e-11
5.50050557803e-10
4.58563261479e-09
3.00248959035e-08
1.4610070988e-07
4.99192612362e-07
1.17416890395e-06
2.01215425637e-06
1.71954963346e-06
8.54910146945e-07
2.6117294238e-07
5.61371285925e-08
1.19029405391e-08
1.58764060708e-08
1.07118536342e-07
1.69242245814e-07
1.91317550889e-09
6.94569955733e-10
1.85512193251e-08
2.9740382459e-07
4.68529630936e-06
6.05754242577e-06
7.28374767879e-06
1.01796830461e-05
6.53025023272e-06
1.58794587402e-06
4.0617296488e-07
7.30956049769e-08
1.67073474394e-08
3.34436714984e-09
5.43885587138e-10
6.31102968432e-11
1.46114846793e-11
1.0285983214e-10
9.09974468216e-10
6.3957718138e-09
3.37394966481e-08
1.26623393023e-07
3.31689959705e-07
6.012219225e-07
4.94220782111e-07
2.36550380785e-07
7.02259384174e-08
1.50350199469e-08
2.85988646281e-09
2.03819680505e-09
1.65935075062e-08
2.30979051164e-08
3.57249720644e-10
3.13489971958e-10
6.54263398637e-09
1.05895072672e-07
1.54382747372e-06
1.48965650143e-06
2.48747476759e-06
5.8251165274e-06
4.07491204253e-06
1.12096133639e-06
2.54542082097e-07
5.06677410292e-08
1.14797590255e-08
2.23364200664e-09
3.48788206256e-10
3.84517407792e-11
4.49251990165e-12
1.65370955994e-11
1.52168614233e-10
1.13393375725e-09
6.40969622469e-09
2.59224126013e-08
7.34649684349e-08
1.40350149525e-07
1.13637371178e-07
5.29863501169e-08
1.53796442731e-08
3.24578961202e-09
5.78598278572e-10
1.578872237e-10
9.78310103802e-10
9.142452977e-10
1.9276716725e-11
1.19368049454e-10
1.43554775359e-09
1.89010433289e-08
2.82952124354e-07
2.30882117942e-07
9.63567755458e-07
3.76159323478e-06
2.51308027354e-06
6.65257851554e-07
1.3857164248e-07
2.95041128108e-08
6.43723161348e-09
1.21160956197e-09
1.76206472056e-10
1.77210065054e-11
1.47985437184e-12
2.2978171564e-12
2.14730123713e-11
1.67611913742e-10
1.003227206e-09
4.31837168496e-09
1.29237498553e-08
2.59260452818e-08
2.10359803484e-08
9.65537834747e-09
2.73580392285e-09
5.62690857271e-10
9.59759042844e-11
1.53863045568e-11
1.22103439073e-11
4.97782623365e-12
9.4552186264e-12
6.55457962853e-11
5.84530460563e-10
4.13994396348e-09
3.52584557913e-08
6.78788780203e-08
4.93023853569e-07
2.56127374124e-06
1.48285692094e-06
3.01803374339e-07
6.0270993752e-08
1.37162699499e-08
2.85024467159e-09
4.90043441539e-10
6.35356360155e-11
5.65257867796e-12
3.92080294909e-13
2.77669172912e-13
2.56327662466e-12
2.07434363418e-11
1.29865186164e-10
5.86843353585e-10
1.81874076134e-09
3.81595446952e-09
3.14656880525e-09
1.43287190376e-09
3.96371690961e-10
7.89660363686e-11
1.28542393723e-11
1.85693638888e-12
2.8909962735e-13
3.75287310572e-13
5.47885132951e-12
3.53704314086e-11
3.5186791717e-10
2.50384939059e-09
1.38284196083e-08
5.99254197158e-08
3.21475707248e-07
1.79246548854e-06
7.82541908476e-07
1.11632372505e-07
2.20143441329e-08
4.92923974511e-09
9.93980674936e-10
1.45952117195e-10
1.60723025437e-11
1.23358013382e-12
7.4514003473e-14
2.96879959656e-14
2.6048566608e-13
2.16085514148e-12
1.39880092255e-11
6.54562108044e-11