/*--------------------------------*- C++ -*----------------------------------*\
| =========                 |                                                 |
| \\      /  F ield         | OpenFOAM: The Open Source CFD Toolbox           |
|  \\    /   O peration     | Version:  v2012                                 |
|   \\  /    A nd           | Website:  www.openfoam.com                      |
|    \\/     M anipulation  |                                                 |
\*---------------------------------------------------------------------------*/
FoamFile
{
    version     2.0;
    format      ascii;
    class       volScalarField;
    location    "3.3";
    object      nut.air;
}
// * * * * * * * * * * * * * * * * * * * * * * * * * * * * * * * * * * * * * //

dimensions      [0 2 -1 0 0 0 0];


internalField   nonuniform List<scalar> 
4480
(
1.46242733249e-07
1.31494008147e-07
6.13360144393e-08
4.37488124977e-08
1.25804312432e-08
9.51591656172e-09
8.78032682698e-09
1.97539787075e-08
2.04307488876e-08
1.57105193406e-08
2.4662378647e-08
9.85379276188e-09
3.61629274259e-09
1.96898606261e-09
5.59536863112e-10
2.40427947521e-10
1.5424094108e-10
4.33523655946e-11
8.51709105498e-12
6.1831546647e-12
4.30030748761e-12
2.2784452022e-12
4.04241580095e-12
9.05183295853e-12
5.34109363188e-11
2.57805709637e-10
1.27688063846e-09
4.38477583016e-09
1.97703669456e-08
2.75008519308e-08
7.07722846489e-08
7.89528853859e-08
1.22239154382e-06
1.16833802325e-06
6.26834234396e-07
3.57661519468e-07
2.00057045385e-07
8.49210522632e-08
1.20348585756e-07
1.67360524599e-07
2.45040952982e-07
1.85649686273e-07
3.63295218477e-07
1.3543260078e-07
4.26165990437e-08
2.00774194777e-08
9.07991488455e-09
6.31575557116e-09
6.22556781956e-09
2.71657173579e-09
4.77197104325e-10
3.27807000358e-10
1.69444045805e-10
9.42867825695e-11
8.86339115571e-11
1.60654374058e-10
6.10652956695e-10
2.86470614287e-09
1.70190910445e-08
5.03104920181e-08
9.79886743475e-08
2.0441402571e-07
4.2115918015e-07
6.87886374811e-07
3.97750703207e-06
4.93238151497e-06
2.36346338617e-06
1.62161026795e-06
8.57811243421e-07
4.22069390321e-07
4.71854708675e-07
9.40696692252e-07
1.45565853368e-06
1.21517417695e-06
1.94000692327e-06
6.95472804185e-07
2.6931606637e-07
1.46477659833e-07
7.52771193056e-08
5.69861095269e-08
5.31784581468e-08
2.60275435362e-08
5.00890443162e-09
4.56516634785e-09
2.25246898689e-09
1.63479285771e-09
1.05155887044e-09
7.76978893338e-10
3.51295168457e-09
1.48206408497e-08
8.75914996602e-08
3.24390877144e-07
5.38743495287e-07
1.09419973553e-06
2.51882695642e-06
2.78171297428e-06
9.67398775886e-06
9.11008869533e-06
6.72394782918e-06
3.70972433529e-06
2.67656410624e-06
9.21330366497e-07
1.35133324367e-06
2.36050588427e-06
4.74662511684e-06
4.95144643929e-06
5.15315132115e-06
2.84582191864e-06
1.08639505956e-06
7.1903971774e-07
3.83746317592e-07
3.12262031411e-07
1.99506057118e-07
1.33514426382e-07
2.9136883698e-08
3.42179616405e-08
1.77646699881e-08
1.28714646148e-08
6.1409158848e-09
5.29270826249e-09
1.57299089325e-08
6.75875856756e-08
3.29938864826e-07
1.29084357645e-06
1.74321726144e-06
2.77098506892e-06
5.49612995144e-06
7.25214431072e-06
1.52748743378e-05
1.64157549442e-05
1.40050253986e-05
7.98818355854e-06
3.54101068939e-06
2.06689198274e-06
4.04128212954e-06
6.19221193034e-06
1.16260648109e-05
1.00699114109e-05
9.01874918093e-06
5.93928011201e-06
3.90247237492e-06
2.81380062371e-06
1.55835042751e-06
1.09066857802e-06
6.67693264543e-07
5.55952044225e-07
1.14132852898e-07
1.94752776391e-07
1.12047059439e-07
5.93041572569e-08
2.67126928328e-08
1.99600544844e-08
6.59172978164e-08
2.5243167115e-07
9.48950277178e-07
2.9168769044e-06
4.44755468597e-06
6.73199633124e-06
9.75760009015e-06
1.48155071807e-05
2.83130266482e-05
2.98072948398e-05
2.47523573194e-05
1.74396177749e-05
8.7563829256e-06
5.95116656225e-06
1.06037606844e-05
1.62920639621e-05
2.35540364139e-05
1.92826087195e-05
1.66707951343e-05
1.22413293039e-05
1.00828994396e-05
8.11529396401e-06
4.41362400632e-06
3.57112488255e-06
2.56772219049e-06
1.93885285301e-06
8.9482635189e-07
8.83887488906e-07
5.24456598572e-07
2.12037166681e-07
9.27031473287e-08
6.50088690755e-08
1.66502947363e-07
6.15861527447e-07
2.02659763062e-06
6.10038613662e-06
9.45005354187e-06
1.25119286995e-05
1.90483909163e-05
2.57301557524e-05
4.81254792472e-05
4.88777405007e-05
3.79182837981e-05
3.0289191936e-05
2.01693543492e-05
1.38595108219e-05
2.31467796086e-05
2.93185577306e-05
3.7750315713e-05
2.92986552486e-05
2.50370090564e-05
2.23474429275e-05
1.9969838295e-05
1.45096721664e-05
1.05005993863e-05
9.01398452468e-06
7.88465377669e-06
5.30332279805e-06
3.87177319629e-06
2.85356335391e-06
1.90413474772e-06
7.28702279208e-07
3.02502565335e-07
1.76735940633e-07
3.25154237092e-07
1.3422078529e-06
4.56738396126e-06
1.12164675713e-05
1.84206819938e-05
2.31386638703e-05
2.992326728e-05
4.0805595124e-05
6.33913172468e-05
6.50503293672e-05
5.02902764929e-05
4.80038835525e-05
3.9948170179e-05
2.98887925047e-05
4.25665812638e-05
4.74932701778e-05
5.338129467e-05
4.09744234847e-05
3.63616785977e-05
3.38196982078e-05
3.11371480855e-05
2.61476321133e-05
2.04234773635e-05
1.88626348217e-05
1.49341395271e-05
1.22873329908e-05
1.23843829337e-05
7.92744974771e-06
5.39577312365e-06
2.36984432614e-06
9.55850613438e-07
4.3190225145e-07
8.38369578935e-07
2.96132129615e-06
7.70224959136e-06
1.87818193651e-05
2.6728491549e-05
3.4826564168e-05
4.08969125611e-05
5.35582528435e-05
7.84904741644e-05
7.9560803028e-05
6.36329910962e-05
6.24129692679e-05
5.93263851578e-05
5.22384411e-05
6.4232549351e-05
6.18613072242e-05
6.71831821284e-05
5.10738790391e-05
4.95480049108e-05
4.50385956214e-05
4.10569512952e-05
3.95388852718e-05
3.24074029798e-05
2.96224548243e-05
2.64555442162e-05
2.27747459703e-05
2.38677817946e-05
1.66097468826e-05
1.33498625858e-05
7.10830532414e-06
2.92653902578e-06
1.0943106131e-06
2.01943705101e-06
6.47398666798e-06
1.35291476337e-05
2.64768227315e-05
3.89851773487e-05
4.03707530834e-05
5.34080236547e-05
6.27278769902e-05
9.72288658217e-05
9.28626525997e-05
8.41794540412e-05
8.56627198373e-05
6.61266080691e-05
6.65840527353e-05
8.28489213981e-05
7.7133173762e-05
7.98186900096e-05
6.93294677072e-05
6.3925447273e-05
5.75600284358e-05
5.31250788748e-05
5.22151707852e-05
4.43319393407e-05
4.35306148465e-05
3.74747263273e-05
3.58541463606e-05
3.72546106323e-05
3.22283029826e-05
2.08220740719e-05
1.09204393109e-05
7.13733982513e-06
2.43410571843e-06
3.37440281434e-06
1.04472763663e-05
1.98452945423e-05
3.81741486718e-05
5.15202472054e-05
5.21429914412e-05
4.99926373005e-05
7.75237637504e-05
0.00010573256302
0.00010049081904
0.000100330250063
9.74031726879e-05
7.7700128307e-05
8.26485776699e-05
9.93589058756e-05
9.12591001235e-05
8.48547085144e-05
8.33095251282e-05
7.84920662819e-05
7.02593709845e-05
6.56838755583e-05
6.60219831725e-05
6.42761849067e-05
5.61353981193e-05
5.38212853992e-05
5.20513864786e-05
5.68301909388e-05
5.41934435366e-05
2.38219428093e-05
2.58668156887e-05
1.17591589676e-05
4.56510391106e-06
5.36751315966e-06
1.5332883167e-05
2.82635120584e-05
4.68180697136e-05
6.18581465736e-05
6.60632322866e-05
7.94818567984e-05
7.54153796645e-05
9.47087639545e-05
0.000119793345142
0.000125869510564
0.000118980100391
0.000101039355139
0.000109517426594
0.000117326509348
0.000103380681448
9.30623855299e-05
8.93173046549e-05
8.63427066711e-05
8.46175395769e-05
8.07690217268e-05
7.92730246309e-05
7.55955633201e-05
7.69988187249e-05
7.07376470369e-05
7.42652639508e-05
7.57921931107e-05
7.82829544389e-05
4.89872802048e-05
2.1180620692e-05
1.72020161314e-05
8.20578451479e-06
8.43523274432e-06
2.12914455066e-05
3.7960780964e-05
6.30879031364e-05
7.49425729433e-05
8.30743665481e-05
4.50376004064e-05
6.17041535462e-05
0.000115357554058
0.0001360334212
0.000143787096953
0.000153877211721
0.000128617530942
0.00013571573634
0.000135410510648
0.000106901796231
9.34753587698e-05
9.53671585534e-05
4.49634029326e-05
9.34716368508e-05
6.76698434664e-05
9.7420166049e-05
9.42322031163e-05
9.02455742108e-05
8.99933579488e-05
9.86702052724e-05
9.24722852344e-05
9.57018138875e-05
3.6812701312e-05
1.39488798486e-05
2.19888898809e-05
1.15189800827e-05
1.10705280234e-05
2.71290380697e-05
4.57305946955e-05
7.27290148077e-05
9.08929069735e-05
0.000103594169869
6.68388152872e-05
0.000117710385735
0.000123612616096
0.000142373316234
0.000164621143042
0.000182593729766
0.000163493341979
0.000161415962853
0.00016213697325
0.000114432430145
0.000101305751417
9.49662521223e-05
0.000100545149079
9.8207511458e-05
0.00010208951493
0.000108031227307
0.000115632934028
0.00010420571513
0.000100298226732
0.000120739172086
0.000111024345712
0.000114866244314
9.38961197651e-05
3.69258017729e-05
3.0469062543e-05
1.3785892111e-05
1.3446400114e-05
3.09842463095e-05
5.71607262856e-05
8.64146537861e-05
0.000104543829436
0.000114289268606
0.000114364226389
6.44346340295e-05
0.000135840640445
0.000155944623925
0.000181718454163
0.000213884510425
0.00019830020126
0.000193281517728
0.000177668309927
0.000121014481044
9.39274326055e-05
0.000100171531364
5.48729055377e-05
9.9519797019e-05
6.91466953618e-05
6.31686019923e-05
0.000131829831432
0.000130166980722
0.000131653578354
0.000136717420482
0.000133452405488
0.000133125800814
0.000105756210131
7.46120920929e-05
3.38808782028e-05
1.67077226446e-05
1.60720237664e-05
2.11950189799e-05
6.37788095293e-05
9.65980380617e-05
0.000113801244714
0.000124349870268
0.000132590665182
0.000137435866401
0.000145490138949
0.000158336587417
0.000195533502542
0.000254281037022
0.000239028194651
0.000232357799613
0.000193275601762
0.000129994443508
0.000101174945153
9.66545030281e-05
9.41782490219e-05
9.5772839291e-05
9.46357821134e-05
0.000103653784822
0.000141507611407
0.000145175635558
0.000146044580739
0.000149030598224
0.000146101841984
0.000145911374685
0.000123101412795
7.66166200054e-05
4.10291820083e-05
1.95073995238e-05
1.85487863277e-05
3.78075644651e-05
6.64638644391e-05
9.78113594595e-05
0.000118369553761
0.00013064496497
0.000139585179934
0.000139062254888
0.000145126077002
0.000172023347084
0.000198037308505
0.000280369167484
0.000279600794945
0.000287588090053
0.000204593749137
0.000130453811142
9.50124440604e-05
8.97808739788e-05
9.13866573716e-05
9.14667058428e-05
0.000101552168696
0.000123910623714
0.000143165540281
0.000155640857627
0.000155166340295
0.000162713970853
0.000159684710483
0.000163365443036
0.000137594883557
8.83002546857e-05
4.33593179314e-05
2.29220691162e-05
2.13792270977e-05
1.81428090549e-05
7.33446452935e-05
0.000100118094548
0.000123358800394
0.000136533160823
0.000138206639897
0.000139844762268
0.000137466416006
0.000176896602628
0.000211837829604
0.000296532153627
0.000303620769526
0.000313275588477
0.000231676778136
0.000130309469742
9.46569507003e-05
8.37298258148e-05
8.44996352377e-05
8.30770858546e-05
9.06603080354e-05
0.000120187121472
0.000137396737839
0.000159368484803
0.000168157037052
0.000172285900456
0.000170976904117
0.000176522597405
0.000146962237636
9.06355591625e-05
4.82152034407e-05
2.72762050856e-05
1.75286764804e-05
3.77129937019e-05
7.38156571419e-05
9.85446641801e-05
0.000126531699715
0.000132052001402
0.000134410762041
0.000133479731468
0.000135797620277
0.000177366571011
0.00021514954737
0.000312199916373
0.000342234249999
0.000330901092142
0.000254908528046
0.000131261156691
8.67329114479e-05
7.92063486977e-05
7.94208582504e-05
7.55946865903e-05
8.58372529896e-05
0.000108823092279
0.000133327455084
0.000151644232507
0.000159027825735
0.000179547290338
0.00016781418104
0.000180528260554
0.000150561833138
9.9530706383e-05
5.39624631656e-05
2.22503780668e-05
2.7289154314e-05
5.07177391175e-05
5.4190599626e-05
9.66646502652e-05
0.000119782446923
0.000134247004469
0.000135394297666
0.000135141396978
0.000131268085178
0.000168800252063
0.000217208027901
0.000318333502196
0.000361149569062
0.000351538624156
0.000270596227413
0.000144456845322
8.24960270224e-05
7.21323536565e-05
6.89851880892e-05
6.41394981881e-05
7.44058238757e-05
9.51262393907e-05
0.000115983392577
0.000145212704548
0.000147333539446
0.000163771163801
0.000164225663377
0.000174893611917
0.000145721108721
6.15083540206e-05
1.43386398756e-05
3.27127499911e-05
3.20812355068e-05
5.50231473777e-05
7.67834073225e-05
9.39729927302e-05
0.000113733003206
0.00013169235621
0.000132048776304
0.000131297678835
0.000128743063448
0.000160595771618
0.000208857372145
0.000316524136135
0.000382356569083
0.000375070621234
0.00028310528512
0.000150862884614
8.12967725335e-05
6.62123781578e-05
5.72184009921e-05
5.3542925474e-05
4.41434151958e-05
7.69677213892e-05
0.000100338638706
0.000132411636716
0.000129967122809
0.000147216330655
0.000144160761826
0.000161197700886
0.000138270380031
8.3587052203e-05
5.36230540432e-05
4.18667826512e-05
3.72386126553e-05
6.03141406556e-05
7.63060554019e-05
8.49457727697e-05
0.000101657780583
0.000125079782314
0.000127726489014
0.000123634073205
0.000116518914092
0.000143139245811
0.000196262438452
0.000308747126029
0.000389875600912
0.000383930229657
0.000305249870418
0.000159994090914
7.40607930451e-05
5.53417236176e-05
4.54883611784e-05
3.82554928939e-05
3.17669614706e-05
5.75841502682e-05
8.06544239705e-05
9.50531399055e-05
0.000106129653095
0.000122995565523
0.000125475812662
0.000143096681319
0.000126896928091
0.000109383520931
8.44688699948e-05
3.95142098576e-05
4.21751284541e-05
5.86950316713e-05
7.14754025884e-05
7.77325952356e-05
9.7586304786e-05
0.000109580595739
0.000124949358619
0.000122676162013
9.89882981948e-05
0.000123265775705
0.000185799841667
0.000303571443787
0.000384581057034
0.000397632592041
0.000311817768688
0.000170299682179
7.45898768455e-05
4.91839226133e-05
2.69010416357e-05
2.51772150753e-05
1.88072138428e-05
2.6650883615e-05
5.31819326005e-05
8.03432350988e-05
8.10702557186e-05
0.000100988160849
0.00010417898037
0.000117491163831
0.00011753710198
0.000104443646521
8.16906435519e-05
6.13947883383e-05
4.2664935908e-05
5.9202077686e-05
6.68280715681e-05
7.7536424646e-05
8.88727856455e-05
0.000100036251924
0.000116254702102
0.000112550340793
8.95062490317e-05
0.000114449721889
0.000171997736528
0.000286839702505
0.000382904680238
0.000400784229853
0.000323774436211
0.000178040149288
6.60703523959e-05
4.18455903154e-05
2.33145696287e-05
1.63336148757e-05
8.34176917819e-06
1.56229829242e-05
3.30209637577e-05
5.59864655132e-05
5.67998704098e-05
7.73779983078e-05
8.4833310153e-05
0.000102157434921
7.3166894932e-05
8.6700811414e-05
7.17421828773e-05
5.65688314424e-05
4.87505092186e-05
4.94900131002e-05
6.46351658217e-05
7.07829331855e-05
7.39749021112e-05
8.50887578047e-05
8.83962430465e-05
9.88924779493e-05
7.213453525e-05
9.54829521779e-05
0.000149557222871
0.000276425145104
0.000372262808779
0.000400468032451
0.000327605821847
0.000187729311429
6.27527362467e-05
2.79666430845e-05
8.48213467133e-06
5.12374485263e-06
3.21881265979e-06
7.8147683053e-06
1.57802417291e-05
3.15395899505e-05
3.83452337817e-05
5.55306930762e-05
6.72827759883e-05
8.53662605735e-05
8.37295105681e-05
6.46712804757e-05
5.54362293609e-05
5.12229184835e-05
4.98725470567e-05
5.53376082211e-05
6.3604067641e-05
6.3285050794e-05
4.92390756825e-05
7.18965702946e-05
8.17921100091e-05
8.59983614894e-05
4.92160575219e-05
7.66941345399e-05
0.000138816178426
0.00026434619997
0.000354136632226
0.000392373954969
0.000322697529873
0.000190029004628
6.73513976118e-05
2.49833270698e-05
5.29224957251e-06
1.40540959009e-06
5.47491583941e-07
3.74529373396e-06
6.85175744932e-06
1.46855559997e-05
2.05865884545e-05
3.99203632331e-05
4.96147531801e-05
6.42534503722e-05
5.69292413791e-05
4.88802259246e-05
4.16984954604e-05
4.28448241592e-05
4.72811955752e-05
5.36635307971e-05
4.68538560412e-05
5.767602007e-05
5.3629280232e-05
5.88693064558e-05
7.13361563848e-05
5.22220869003e-05
3.45836547284e-05
5.38874636983e-05
0.000109917374414
0.000250605362015
0.000348513909837
0.000371154571624
0.000318316082067
0.000189112313882
6.36437446908e-05
1.98195478944e-05
3.92557160038e-06
3.42528416135e-07
2.17079178093e-07
9.86079096525e-07
2.12809560631e-06
4.31252382609e-06
6.93494178568e-06
1.99083551574e-05
2.32060445889e-05
3.71588237643e-05
4.01044753028e-05
3.60565791918e-05
3.32566669938e-05
3.63057862469e-05
4.50600864143e-05
5.07880969974e-05
5.72386940269e-05
5.3540991773e-05
4.59199562571e-05
4.46917419161e-05
5.38517132788e-05
5.05170122618e-05
2.19294629472e-05
3.45007045395e-05
8.73168465346e-05
0.000236022878209
0.000316566756952
0.000355971308328
0.00031348192012
0.000181479043469
7.16279933281e-05
2.0653449886e-05
5.8011292871e-06
2.00740801218e-07
5.28901743313e-08
2.86418110998e-07
5.24360543996e-07
1.19921698658e-06
1.57761989984e-06
6.56674668549e-06
1.31965775169e-05
2.06624564861e-05
2.77243251298e-05
2.80798614573e-05
2.92567883474e-05
3.1377865635e-05
4.06990749049e-05
5.02230828715e-05
5.17856741333e-05
4.58146481167e-05
3.52639238696e-05
3.41914480329e-05
4.15932195567e-05
3.60759477411e-05
1.48915974078e-05
2.00321285609e-05
6.52788945084e-05
0.000215741525411
0.000307264635043
0.000330400645554
0.000294536657224
0.000172131265153
6.09450464606e-05
8.4432195771e-06
3.0208799049e-06
4.02743901518e-08
2.91644596885e-08
1.11320528568e-07
2.07291755106e-07
3.7362624979e-07
4.7642114274e-07
2.36637409137e-06
6.61583001883e-06
1.242140968e-05
1.87643040384e-05
2.29424648988e-05
2.57961146409e-05
2.85709510816e-05
3.51288830646e-05
4.55232334824e-05
4.52171891157e-05
3.65849391403e-05
2.59687455366e-05
2.55754176276e-05
2.89566736604e-05
2.41326876196e-05
9.10960722949e-06
1.03274261288e-05
4.40884931975e-05
0.000178054080702
0.000296190385318
0.000305890830856
0.000266905022093
0.000162214599798
5.73564120041e-05
1.00645372812e-05
2.28962874022e-06
3.00031836977e-08
6.62307914504e-08
1.00589987639e-07
1.47333185155e-07
2.09331622852e-07
3.55944065324e-07
1.01487591496e-06
3.63329766156e-06
7.84779193702e-06
1.45356739695e-05
1.95921279172e-05
2.31295191463e-05
2.64274001538e-05
3.00564740643e-05
3.58776361696e-05
3.47482503915e-05
2.70517140268e-05
1.32949307702e-05
1.9028712034e-05
1.92885366708e-05
1.51748979804e-05
5.78870346064e-06
5.55323411906e-06
2.03989561137e-05
0.000137739536427
0.000285816350932
0.000284783949438
0.000248537647873
0.000159494394083
4.99667324266e-05
1.00608010693e-05
1.6540242843e-06
5.47275476984e-08
7.0023427441e-08
1.11711250891e-07
1.62292058928e-07
2.27165178399e-07
3.87996381847e-07
7.41911764245e-07
2.41681359213e-06
5.96206771237e-06
1.23007032808e-05
1.72144940174e-05
2.10230493235e-05
2.46835549287e-05
2.79205390783e-05
3.06130227138e-05
2.66728973268e-05
1.9622453121e-05
1.67538669858e-05
8.92941199082e-06
1.29280395721e-05
8.86353116671e-06
4.11864681314e-06
3.47900854136e-06
1.46166685964e-05
0.000108466349247
0.00025235372003
0.000263388591289
0.00022629311117
0.000144610548624
5.35912986674e-05
7.81755621651e-06
7.46442608756e-07
8.65875353257e-09
2.47831704218e-08
1.17542776973e-07
1.83837681863e-07
2.7327779273e-07
4.59488940354e-07
7.73865880023e-07
2.04746291677e-06
5.05881531881e-06
1.07943878932e-05
1.5361596486e-05
1.92421005289e-05
2.31125450357e-05
2.60000427534e-05
2.70654619465e-05
2.11763732318e-05
1.51823894855e-05
1.27091872484e-05
1.1701964043e-05
9.8341357142e-06
5.94438562956e-06
3.647755998e-06
2.67346598345e-06
8.61865548716e-06
7.68888533724e-05
0.000214874136902
0.000254761715189
0.00020446625641
0.000131700104234
3.21771694068e-05
5.37394961306e-06
2.01662769704e-07
6.35806650257e-09
1.07820712715e-08
1.19211268048e-07
1.99883133699e-07
3.13878139789e-07
5.2539751821e-07
8.80506355494e-07
1.94086286003e-06
4.61084568493e-06
9.72299601733e-06
1.38219048277e-05
1.76649282708e-05
2.16212187832e-05
2.44101623723e-05
2.29394645402e-05
1.70303383692e-05
1.20196594991e-05
9.12001132363e-06
9.09712080602e-06
7.9773550786e-06
5.77908781667e-06
3.41645694649e-06
2.3985542272e-06
5.20780295062e-06
3.84224476673e-05
0.00017585415828
0.000237968876795
0.000185083571478
0.000118913038029
4.05683739959e-05
4.01242898551e-06
6.98327857416e-08
8.14558221963e-09
6.66767383094e-09
4.20898767424e-08
2.08838493708e-07
3.44106542987e-07
5.83860446034e-07
9.90644162984e-07
1.93919176622e-06
4.37921598285e-06
8.86673310606e-06
1.24477882e-05
1.61794113232e-05
2.01570807515e-05
2.27447481794e-05
1.93487355674e-05
1.38483377532e-05
9.58101855829e-06
6.94347007541e-06
6.75915750987e-06
6.33340594792e-06
5.01186412748e-06
3.04437774599e-06
2.16015092148e-06
4.58871991219e-06
2.67770177601e-05
0.000145070079666
0.000209666450153
0.000163754424759
0.00010539707199
2.32328760698e-05
2.26664795132e-06
2.2368447276e-08
9.41364153646e-09
3.6646459735e-09
2.42212942062e-08
2.09838864315e-07
3.59802135669e-07
6.22498875827e-07
1.07045920664e-06
1.95889135125e-06
4.2121432419e-06
8.08413066599e-06
1.11511449216e-05
1.46940620456e-05
1.8577863228e-05
2.01638279734e-05
1.60489915764e-05
1.10912982666e-05
7.58424427361e-06
5.40941979231e-06
4.88049554646e-06
4.79291643725e-06
4.07554169327e-06
2.49311691987e-06
1.88537689757e-06
4.07842385831e-06
1.50925315144e-05
0.000117492344766
0.000179755418071
0.000145640825707
9.08478805734e-05
6.70299623431e-06
7.54447365649e-07
1.82108441871e-08
4.67888942972e-09
2.50903206261e-09
2.02738253448e-08
1.55832295189e-07
3.5738004904e-07
6.32516905477e-07
1.1028209784e-06
1.9506814483e-06
4.01863717957e-06
7.30380638634e-06
9.88056188599e-06
1.31672693961e-05
1.678020422e-05
1.72743202051e-05
1.31639012678e-05
8.89309257274e-06
6.0268845938e-06
4.23153716025e-06
3.47433881699e-06
3.48737707674e-06
3.144262452e-06
1.95099857763e-06
1.5258295864e-06
3.66629336156e-06
1.14372171748e-05
6.62598508625e-05
0.00015425672553
0.000123327207205
7.89276607065e-05
2.48408485408e-05
5.99601290747e-07
1.80312445114e-08
1.49296424787e-09
1.56723805336e-09
1.02387852396e-08
9.4766083534e-08
3.35767893877e-07
6.1072241598e-07
1.08304020975e-06
1.88580436378e-06
3.74307900802e-06
6.47157580444e-06
8.6182059339e-06
1.15968086983e-05
1.4815828491e-05
1.45488324868e-05
1.07312487877e-05
7.1237383833e-06
4.76818309344e-06
3.26554034161e-06
2.45829336264e-06
2.45534966438e-06
2.33558887274e-06
1.49893409163e-06
1.17909763663e-06
3.25219665223e-06
6.47243089152e-06
3.04582274379e-05
0.000102951228047
0.000109081860459
6.75794401073e-05
5.68456909942e-06
3.9928446788e-07
1.88683515743e-08
5.35599873849e-10
7.968048134e-10
4.59379417431e-09
4.94955521773e-08
2.9675827786e-07
5.59238782554e-07
1.01641389866e-06
1.75528636376e-06
3.36699321202e-06
5.59036452461e-06
7.37860230814e-06
1.00132377361e-05
1.2777765219e-05
1.20747567485e-05
8.67189425158e-06
5.65791917453e-06
3.71176031543e-06
2.43851382863e-06
1.69810459494e-06
1.70109501969e-06
1.7051460212e-06
1.116916185e-06
8.60023473513e-07
4.28849709558e-06
9.88516136242e-06
2.84342238446e-05
9.54427123001e-05
8.88787449331e-05
5.37023832153e-05
3.60890655158e-06
3.05029647996e-07
1.60259849757e-08
2.55659380737e-10
3.2799732489e-10
1.86482755752e-09
2.14291314043e-08
2.445599863e-07
4.85817647253e-07
9.1114964014e-07
1.57056079958e-06
2.91527680877e-06
4.6987947779e-06
6.1925613577e-06
8.46694555691e-06
1.07626744225e-05
9.86228526849e-06
6.92166351209e-06
4.42234690668e-06
2.80863891714e-06
1.72720505526e-06
1.11779754672e-06
1.23100831067e-06
1.295589867e-06
4.97089508429e-07
1.26364561307e-07
6.36643504704e-06
1.5076369472e-05
4.84246406974e-05
7.98882335311e-05
7.25962807752e-05
4.12557612822e-05
7.48337779742e-06
2.54224210789e-07
1.66936218398e-08
1.71259192875e-10
1.23710365253e-10
6.71719336067e-10
7.88216147641e-09
1.09976786208e-07
3.98930158507e-07
7.76155408782e-07
1.35429271766e-06
2.43591960326e-06
3.84694881926e-06
5.09363100026e-06
7.01246340972e-06
8.8449005153e-06
7.91867762306e-06
5.43923633833e-06
3.3780344551e-06
2.03822347978e-06
1.13928099767e-06
7.42215854579e-07
1.03644583412e-06
1.00889612916e-06
9.7451635468e-08
2.2888177151e-08
2.24314532607e-06
8.72985914991e-06
3.15555262152e-05
6.70790302594e-05
5.79876172201e-05
1.8530891477e-05
2.59652945837e-06
2.4993411742e-07
1.77317892308e-08
1.54212227104e-10
5.33555082526e-11
2.13245846282e-10
2.52553794844e-09
3.39147131992e-08
3.07328139513e-07
6.26863997519e-07
1.13048084071e-06
1.97407133799e-06
3.07550096949e-06
4.10873332822e-06
5.69520857251e-06
7.10402213182e-06
6.24788396625e-06
4.19677277061e-06
2.50455089413e-06
1.39609170261e-06
6.55437193854e-07
5.96650685309e-07
9.82302182799e-07
3.19698100672e-07
6.97272857773e-09
5.84777120269e-09
6.56176417142e-07
5.20258948922e-06
3.35238926569e-05
5.35511717778e-05
4.49344414414e-05
1.22119466798e-05
2.46996835747e-06
1.99926674986e-07
1.81862706705e-08
1.6497299146e-10
3.48798847655e-11
6.08198466348e-11
7.07960895159e-10
9.18800847333e-09
2.19529023501e-07
4.80864791566e-07
9.16091618604e-07
1.55959917135e-06
2.40816988345e-06
3.25432376061e-06
4.54509432562e-06
5.60180724424e-06
4.84467895503e-06
3.17197523789e-06
1.79049884407e-06
8.88163982062e-07
1.42968831095e-07
5.6958661911e-07
9.21747843163e-07
4.17811958865e-08
5.11355493883e-10
6.209075475e-10
1.05551707739e-07
1.90901058037e-06
1.27211382706e-05
3.93411416874e-05
3.26366815055e-05
8.66046251207e-06
2.45899543843e-06
1.66113518142e-07
1.75319675773e-08
1.97715185151e-10
3.50556976396e-11
1.8534417984e-11
1.71765393098e-10
2.26628434169e-09
6.75036027414e-08
3.49793524026e-07
7.17049986321e-07
1.20626504109e-06
1.85248722926e-06
2.53569466532e-06
3.57512049786e-06
4.34669206838e-06
3.69017081762e-06
2.34361072107e-06
1.22827529146e-06
3.59687851297e-07
7.28126329719e-08
5.36877889908e-07
8.28110115625e-07
4.87659266842e-09
3.14780140858e-11
1.61111049311e-10
3.00121119073e-08
1.57356629305e-06
6.35231837091e-06
2.82631766946e-05
2.27802230679e-05
1.13706890079e-05
1.67458162695e-06
2.23827490175e-07
1.5530561307e-08
2.50904829032e-10
4.34737978344e-11
9.70298429905e-12
3.63579234129e-11
5.21248576378e-10
1.36874232848e-08
2.38070593892e-07
5.29057328083e-07
9.14887494556e-07
1.40367969653e-06
1.94819620715e-06
2.78240680132e-06
3.32108270748e-06
2.75606878755e-06
1.69066199128e-06
6.06136249831e-07
5.75289208509e-08
5.43559820944e-08
4.96760246558e-07
6.9677884455e-07
6.4347099004e-10
8.69270676969e-12
2.19298764858e-10
8.07400501285e-09
1.33986101043e-06
3.30522445138e-06
9.38895099541e-06
1.77562590279e-05
8.19222176476e-06
1.31764337337e-06
3.3667309023e-07
1.27465836876e-08
3.09551110449e-10
5.85223249739e-11
1.0179513133e-11
7.81227002781e-12
1.16204016916e-10
2.56969022349e-09
7.62589330273e-08
3.60947016896e-07
6.75756352263e-07
1.04853822171e-06
1.47892664986e-06
2.14823093593e-06
2.49333982658e-06
2.01009024195e-06
1.19015642782e-06
1.26170318179e-07
1.86948305826e-08
2.79055379205e-08
4.40196254963e-07
4.4948618545e-07
6.55564850207e-11
1.0516677454e-11
2.6544135855e-10
2.59235445674e-09
7.62061139458e-07
4.3205201585e-06
5.22907409403e-06
6.61968741516e-06
6.19609723458e-06
1.18590741141e-06
2.414242625e-07
1.08209324432e-08
3.66259195468e-10
9.13576808592e-11
1.40916282476e-11
2.56502742118e-12
2.55447994522e-11
4.50318610822e-10
1.22401616612e-08
2.23205515572e-07
4.71923039179e-07
7.67651992108e-07
1.10806721499e-06
1.63747409352e-06
1.82526109089e-06
1.42017719675e-06
6.34297786793e-07
2.84301794205e-08
4.66793040221e-09
8.43387694843e-09
1.53455167585e-07
2.01748019604e-07
1.08279620245e-11
1.45499560687e-11
4.90333689961e-10
2.29077945133e-09
8.90933251064e-07
2.83896070684e-06
6.81682997793e-06
3.14855031247e-06
1.86832480183e-06
9.99237263731e-07
2.01869273947e-07
8.43033236987e-09
4.79602727368e-10
1.34378466971e-10
1.81345946599e-11
1.55373956666e-12
5.58449531871e-12
7.58819817533e-11
1.66195765868e-09
3.52794519848e-08
2.89951798491e-07
5.35562910662e-07
8.08769099505e-07
1.20707111175e-06
1.28036048659e-06
9.63063024113e-07
1.15625000119e-07
6.32112859679e-09
9.29542349762e-10
1.46402596504e-09
3.68103060105e-08
4.32295528604e-08
8.05416658522e-12
1.92397080111e-11
9.92501276201e-10
2.19374863929e-09
6.08693627879e-07
3.53462563834e-06
1.4016030015e-06
1.78853038975e-06
1.40734120442e-06
7.7469904425e-07
2.38264703954e-07
7.17392826298e-09
5.28589963364e-10
1.49647671155e-10
1.50429616477e-11
1.26232960997e-12
1.17770974815e-12
1.37718478211e-11
2.10484758298e-10
3.62778756253e-09
6.57497960082e-08
3.21842174263e-07
5.41182619188e-07
8.24172188087e-07
8.35775807054e-07
2.09882516191e-07
1.75113199379e-08
1.239785517e-09
1.52824274084e-10
1.49903148401e-10
2.68829019986e-09
3.98807940931e-09
1.19291570448e-11
1.3511067767e-11
3.89186140483e-10
1.54365665832e-09
1.79024914475e-07
3.41543448233e-07
8.36222936587e-07
1.07544292915e-06
1.55136502527e-06
6.04061331225e-07
1.23170743081e-07
5.28591663881e-09
4.09018630792e-10
1.03843024679e-10
9.34302406566e-12
9.43951922447e-13
2.71736042711e-13
2.48766443266e-12
2.9918908875e-11
3.58172399844e-10
4.51556715805e-09
4.15349545595e-08
1.84359088477e-07
2.93434961056e-07
1.16716470428e-07
2.16438534676e-08
2.31917064245e-09
2.18388086503e-10
2.47186783107e-11
1.16686406708e-11
8.99699252512e-11
1.12569289e-10
2.19135347892e-12
6.02410070217e-12
1.14243713077e-10
6.58756740236e-10
2.18235099268e-08
2.70611652171e-08
2.36265765638e-07
6.90448530837e-07
1.75241880194e-06
4.44258708944e-07
4.67498810423e-08
2.41638792798e-09
2.55075543414e-10
4.59863289027e-11
4.80242239399e-12
5.53106024665e-13
8.02006950063e-14
3.86607460272e-13
4.61151634102e-12
4.36183350439e-11
3.52074191086e-10
2.3687928975e-09
9.79830678197e-09
1.82178809205e-08
8.5817566448e-09
2.01826769764e-09
3.07978233241e-10
4.32840802486e-11
5.60014405892e-12
1.06731419555e-12
4.7084759188e-12
4.62791092781e-12
1.41304396854e-13
2.64800641993e-12
2.68544870612e-11
1.39830419975e-10
1.83107649047e-09
3.21609942939e-09
7.00306568148e-08
4.8762702199e-07
1.06646850633e-06
2.11936495408e-07
1.46912071697e-08
9.60449381649e-10
1.20529443365e-10
1.54193042208e-11
2.13986222932e-12
2.49175265809e-13
2.62359265064e-14
5.26326899448e-14
6.20005794099e-13
5.89517958076e-12
4.09444876271e-11
1.95794076933e-10
6.32549544237e-10
1.19636296616e-09
7.24893025315e-10
2.48313622091e-10
5.67395023519e-11
9.48420113052e-12
1.28379985479e-12
1.3493467947e-13