/*--------------------------------*- C++ -*----------------------------------*\
| =========                 |                                                 |
| \\      /  F ield         | OpenFOAM: The Open Source CFD Toolbox           |
|  \\    /   O peration     | Version:  v2012                                 |
|   \\  /    A nd           | Website:  www.openfoam.com                      |
|    \\/     M anipulation  |                                                 |
\*---------------------------------------------------------------------------*/
FoamFile
{
    version     2.0;
    format      ascii;
    class       volScalarField;
    location    "3.3";
    object      omega.air;
}
// * * * * * * * * * * * * * * * * * * * * * * * * * * * * * * * * * * * * * //

dimensions      [0 0 -1 0 0 0 0];


internalField   nonuniform List<scalar> 
4480
(
419.999071212
419.947295049
419.702373583
419.641073376
419.532148684
419.521422581
419.518532172
419.556291107
419.547315744
419.541901183
419.571334254
419.521964321
419.500810602
419.495097924
419.490177127
419.489064035
419.488762972
419.488376011
419.488254604
419.488246501
419.4882399
419.488233019
419.488239152
419.488256475
419.488410981
419.489126547
419.492656942
419.508386195
419.569654351
419.635119724
419.739377211
419.762183984
239.578824814
242.949240541
220.682637673
233.788849537
193.183399122
241.832784908
230.07669779
245.70454476
222.873202277
224.892854304
215.506161258
189.787740175
199.557863092
210.207950804
169.907202463
155.707916804
124.306618823
115.55065097
125.44282875
129.130807827
153.037523312
157.463622247
177.635359197
167.829562441
179.887922445
199.422278363
198.652294248
239.87882169
256.157413939
248.225387028
237.196968139
241.312821746
219.624564098
206.293134883
193.37259526
179.396715038
183.776168154
195.281391692
229.962602371
220.295163236
195.889577321
178.914524804
173.958783311
154.693446657
134.816500837
127.170771052
114.567667754
105.632141192
83.5870866285
73.1452988303
82.6165875528
80.3734587889
92.6820899918
93.752351681
110.130553488
123.825028069
109.358316856
138.785380512
158.802649008
173.532983723
218.41450518
196.601759951
183.688082223
200.521731762
218.196012787
236.754889661
195.426108094
193.830721544
169.712118491
240.38108064
210.866003263
255.688193954
193.499505715
178.148848994
166.764263847
127.417307511
102.799526152
97.5516919118
92.6867345429
79.6169058041
83.0249993416
66.7997655064
66.062489455
69.701887209
73.5595193974
89.2488655862
89.9771490393
88.7944205301
95.9999861696
100.100108438
123.29390635
133.223048493
170.093379716
171.753357468
175.653187817
190.958888498
233.767257704
252.95346695
213.595477577
206.566690644
216.432682454
195.626077343
173.325955496
232.177757977
190.429168886
152.970652578
145.46493521
120.135321108
88.8584777253
84.7622772874
84.1129560369
77.5936989041
70.3516009617
55.9658560044
55.5165391481
62.5242410927
65.9633192939
65.269666496
73.5010492015
78.6581702736
78.0284418378
74.9121041894
92.9648570093
109.137966933
135.588315202
146.432705742
166.532229431
163.794872696
207.636953683
211.73194193
170.64997847
160.587470046
156.398898638
146.484488223
137.70491475
169.680104401
194.689323857
169.251133115
150.878424424
114.893245702
80.6682081494
81.8319732316
83.1077365409
68.2207569873
61.1896817042
55.4024649292
52.3948867705
54.0276277601
53.6346996264
69.0010815452
59.5775126692
65.1027088181
66.3620178047
74.5495276615
75.8332758962
89.842610168
110.60289829
125.339207097
152.102366221
169.209335029
169.544127568
207.705103678
149.770139877
125.505318619
119.640567603
120.39160797
114.256279547
157.731708025
164.215264148
177.049066641
145.575944518
115.739122304
90.873777345
85.3706086038
71.8114347177
68.0479250268
62.0369752621
52.0467631561
52.9758761052
53.3131666817
52.3907966085
53.4650418574
54.1599036731
54.164265352
60.607139563
59.183957522
69.9549678267
79.3032292049
101.798344739
112.161716005
143.138974974
151.214698128
171.570702729
171.219828087
137.341152142
122.922321398
114.754528198
119.359018199
102.167421454
121.673585777
148.829085696
155.475784548
143.3524849
123.995543239
99.2905180155
91.1694924842
79.4500615827
67.9892380224
61.687047852
57.1209954583
47.445880965
52.3676882795
49.0732574459
50.1111236616
48.4482993357
54.6535694296
50.1921796187
54.6018164835
64.1073150842
77.6586238828
104.645477072
132.94141129
144.831976018
172.177635005
159.680345828
148.693506959
137.486600323
124.112374493
122.54890735
118.002913829
106.16644777
119.631656627
121.913464899
134.986612129
129.616480384
138.540488079
121.316549348
107.759405634
95.7961730626
86.300240714
73.3735711838
61.3659258621
65.2113807676
58.3194444793
53.3597466878
52.3124913005
45.1774576021
48.8797025278
44.8509792309
52.3580534618
63.6451201765
74.9902627079
103.599645098
132.103172984
146.327272496
161.15641338
134.89368255
130.755167518
120.283607928
129.070217378
115.097388973
113.532291336
104.426378834
109.965239813
104.14853299
123.83096567
122.862059766
134.613288803
123.203482241
123.25115175
114.426054233
94.8494121002
85.4977757941
78.1515500621
73.8889333087
66.8189683756
62.2938518724
52.4340502456
48.1170339915
46.5580613141
52.7330157189
52.4659631203
68.4257917032
88.5188107906
118.214906451
132.671917098
151.284628361
140.072714995
134.238017237
133.925211994
129.065471763
125.289054496
112.016173296
118.28731496
113.864084027
107.072915843
112.404856094
109.579990795
107.818151226
126.562384095
138.705340591
151.83006914
110.097573204
115.078709668
99.6246330495
93.7389241643
96.3202458926
80.5731819508
72.1918725743
64.6057001181
55.4542567575
48.8006299582
51.4536421605
62.9505028229
80.1158055904
104.38864484
131.338601283
139.446295777
145.939401111
129.541536348
130.419989366
125.252191195
141.060916334
133.404292479
113.233576031
125.694726621
114.246276128
105.757887143
106.35672417
110.002269115
106.269413569
117.926892278
116.214427227
146.441050309
138.734284305
120.639665064
123.342176219
105.136369542
106.263949994
99.5001675456
83.8689986616
70.8006856212
65.1827760129
49.2978478501
56.4480893937
65.1990022903
93.6476374222
116.554576228
139.615508016
140.87185475
134.885226195
125.674131403
120.599980051
125.799993055
147.868619658
138.859128429
125.96205438
130.188666631
127.951816508
115.841956462
112.494406641
112.59859268
106.607736482
111.410469806
111.060303038
123.330857047
137.387399423
152.268247129
138.642299936
129.466944731
129.599439548
111.289629606
97.6068479633
84.5799031767
69.7320207552
56.5771582139
66.1033453464
74.4257847292
104.906028466
132.989559985
134.360686282
126.252526099
126.792598229
113.488698745
128.86070007
134.625145016
157.488600421
160.989530067
140.767313839
138.933992513
132.214313293
109.055065302
102.635871905
119.892319077
99.7769047957
108.676333866
106.161957871
119.59777588
123.801026689
168.085118004
179.658448485
150.824366832
145.560444235
127.008715807
121.377512725
89.2540766436
64.789501875
60.7064971952
66.422792603
84.3523675682
113.775633574
129.113320579
140.782148212
129.697369839
122.513105282
117.359348795
116.901719045
138.291053332
153.090424744
167.784871657
158.701475932
151.463271013
141.962228221
114.673281181
109.640669918
107.519373517
99.6439395306
101.679101368
107.912992618
112.808169246
119.555530261
139.115447613
152.334285308
186.392498846
147.370455492
142.088865796
132.622564178
99.2371431909
75.6710702543
64.7305995124
73.6810939171
97.4347644843
97.2814148385
119.854128524
134.88343689
127.46967237
123.446966759
135.670907518
121.453935103
145.977496928
163.921002431
182.787396524
177.739771862
167.433597293
139.840454494
119.449497272
94.1080370378
100.610498428
100.715488854
97.960579649
96.1845733426
102.414881494
114.835400351
134.633896002
145.734727627
177.337560112
159.135145062
172.212890793
133.716694833
116.101903684
80.0105450197
69.7943196294
75.8803137657
77.9784226464
89.0595269868
109.670643588
136.623901528
122.934152044
121.767381145
123.257999477
119.271968079
133.90857307
178.226215838
201.286136096
187.027122467
182.62624848
154.282881227
115.533758494
99.1060486384
104.569100073
96.7651945939
92.106899704
93.1374112682
101.651310455
117.245711956
124.158399512
139.537714603
162.601257889
151.985784902
172.835707202
148.237466956
108.352416923
86.5116984164
63.5296593711
64.8851845737
66.6523987027
76.3824467118
95.6119571468
116.767060141
116.17696871
119.151728794
114.279506076
120.116017327
139.627987659
164.888239291
205.331043879
207.895262107
204.759111958
166.130628432
117.756606949
90.5072445769
96.61622766
93.6731732875
84.5103750524
83.4285718218
95.7258382682
116.691394385
118.124572841
119.325710804
144.120476207
132.330413724
148.03332638
140.457971497
109.546761745
76.0936495458
51.6954963753
55.4635854754
61.1456195106
74.1694439695
86.6827647853
107.862893105
117.806087128
121.721811499
121.700160464
118.540636703
140.077170671
165.088123556
201.568066722
212.734577946
212.428908093
178.907889521
118.483926451
90.6759868256
88.5395055581
78.0071603009
72.0325629309
74.846148232
87.6916608738
99.6713907914
117.714916136
116.808688209
116.829492317
118.166483214
130.793409659
119.965655744
93.2208854445
60.6799886515
45.8702296106
50.1900063965
55.6298092768
64.8022535224
78.1360798041
96.9570316537
105.241225315
115.111915254
112.800377979
116.668037577
139.459494675
159.056465375
199.459459081
222.775530166
214.459880098
182.881559629
118.509468435
85.5224081592
81.1151874572
68.3486066144
66.9784914358
58.1824981798
76.7191060118
92.9873687496
107.807641462
105.188317673
108.381170476
99.8122217627
111.809494239
100.707281177
80.9909562407
53.3085962656
42.4094097551
45.5769077611
53.5938993441
59.0475292981
67.1563847113
83.7185839497
98.1744206092
107.118348488
111.550779762
108.465668775
117.768882157
147.676192669
201.798406137
221.800855776
216.49687901
195.840262497
118.720493775
79.5092504203
71.0687705879
54.655981339
49.7691364414
42.2752719036
61.9597839092
77.2006808588
97.5975123901
88.7187926318
93.0834495833
89.3948731457
93.7350059867
85.7092583788
78.8309968449
55.6513430282
40.8712520773
43.862018213
49.1342410408
54.0001275795
60.130807028
75.2839134858
87.8471122042
100.14376348
109.717679777
100.870863567
109.950195587
143.021284742
200.824456506
218.554800245
225.232360013
189.464991512
115.817684896
72.5441739874
62.8582021046
40.5005856333
35.5902525606
27.1571313687
43.5339402615
56.5876298655
83.6099716641
71.4468529533
78.4037848924
74.2029165913
78.1267267274
75.2156102642
67.2404207393
60.6957465166
48.6215729899
44.2306560765
50.6414669171
49.9761788144
58.3912173114
63.5077167363
80.4059021972
87.3042898115
99.7786959199
88.0517677479
101.807383421
125.270411037
179.867121179
214.83360607
218.684122847
199.475269053
120.796934394
65.793082492
48.2704050643
29.4855021096
23.7476858871
16.5364038272
29.7697452948
41.5865692689
61.7623360462
53.3127146856
61.6662479335
63.2186102973
70.2817921893
65.3195787785
62.3837902923
55.1379466429
52.2994348
48.9916907892
49.5136085911
49.0381382596
51.5668569453
60.8805827277
68.7115209648
87.6589491005
84.7371476176
70.9409565851
89.141774277
112.278437168
175.405543445
209.607175247
222.134796884
206.655506959
120.50104691
67.5315599445
38.5090286121
21.3359200025
15.2275085347
10.5665370348
18.2808339099
27.2125512946
43.0120359086
40.5517079495
50.2619048585
53.4017869292
57.6246661729
58.8250362523
51.1656421997
47.6490691057
44.5325414133
50.5762793292
51.037889092
46.40499495
51.7328141042
50.113912672
54.9614999206
77.814137695
76.1602346428
53.1937142357
74.3968556875
101.333676231
159.370849633
197.397576894
213.642063118
194.386300949
127.525493373
54.1342038999
27.9472188248
15.0941566197
10.3923132397
7.70339987486
11.1043612233
17.5089426109
26.9709559499
28.9505756219
39.0885520517
43.9089473823
53.9765674905
48.8512995908
39.5679133032
38.4889615719
40.5888504674
45.6889234507
48.3855528322
46.1908555179
43.7338811552
45.1493619234
51.9373241055
61.2400629043
62.3768222908
43.441209697
56.2804601062
87.2705494874
139.201272848
196.405891634
211.600379868
190.288371586
120.426579368
50.027115663
23.1459365041
11.2619306185
7.43776439322
6.1344339055
8.19317073506
13.1068392559
17.3291509847
22.2921771135
28.6369270943
33.9154438264
44.0120397379
37.4207359969
32.6432416796
31.8872303647
35.6163300179
39.8855039447
42.9046195262
44.0991882178
38.5572639521
37.4824650163
43.8500283701
55.6752846365
52.6633294157
31.4297041656
42.5160977828
66.8135158857
121.123350738
169.995218025
213.849694071
184.568804877
106.339528898
44.4989673181
17.4195352971
9.44257917582
6.2559100845
6.09543975886
7.47931346528
10.2063593165
12.4869389691
14.9047823605
20.7093276837
24.2533961454
29.3144385722
29.5275494903
27.3577676251
28.5607838138
31.9563239959
36.5188804591
38.3257386779
39.6238565544
35.2458971391
31.3568385554
35.0415846221
46.6232282699
45.0827755564
25.9335110602
28.9582767965
48.1792107213
109.181939711
174.914897388
196.231965037
167.998259245
107.045076997
41.2794307714
15.4624017841
8.22632781038
5.81208150724
6.21075649659
7.46313407816
9.01638163574
11.9269034736
14.750498632
17.3722288515
19.8783290612
22.3754265603
24.1618872217
24.5073348246
27.7890479231
29.5721631354
32.8996050231
36.1301606134
36.4650223761
30.9817823631
27.6930874026
28.5610783373
39.0903777815
37.920904851
20.446517378
20.0185754063
37.5346931841
89.3569750507
151.559315001
179.797752402
163.530314677
95.547261862
34.1959551094
11.8734102751
6.71485387382
5.37423473334
5.96798866615
7.1521574777
9.20757026179
12.1587455079
14.7672432417
17.3229068281
18.8788108204
19.8418556602
20.7725954903
23.1327218859
26.9672353849
28.4483407422
29.8066555818
33.0243294045
32.0113433033
27.9304139714
25.3305910577
24.800588895
32.5599923927
31.1762500126
17.9024362064
15.1382874622
26.0237640441
66.7732170042
118.796600109
169.213832518
160.962867309
90.3559440893
28.6748742053
10.5424002027
5.99892237492
4.93801699901
5.43804358938
6.77477950644
8.87184376989
11.5316136117
14.5019201073
17.6816743737
18.6704220465
18.4777485621
19.7649621547
22.580576757
26.4530826685
27.6664420409
27.3638402147
28.4321270691
28.40116795
25.6391553095
24.7601559781
22.8808452073
29.0773497737
25.3420840309
16.0952719905
12.4193810349
16.7974519273
47.9637650507
106.301884699
160.173346249
145.235181156
85.8405659951
25.6695386786
9.59911077747
5.44609499918
4.65633758733
4.92122710191
6.20283507579
8.04559455015
10.7299034208
14.0133098555
18.0893592155
18.699056601
18.2862243514
19.6888868629
22.4813321874
26.1783981143
27.1231538535
26.8009540193
27.3215952265
26.7126970659
24.337405038
23.0990055175
22.4245142343
23.5906586064
21.0862646408
14.7075377534
11.0220768141
12.4793455361
37.4566855087
92.9959500023
132.153909965
131.507091728
78.0363395155
23.1266028652
8.02076148443
4.88639774445
4.52233960128
4.14259569266
5.27976878484
7.09059961726
10.0602881609
13.8341019096
18.2580209388
19.1882952846
18.4473153969
19.8311076907
22.5645630941
25.9828485591
26.6956821159
26.5146862359
27.4872885029
25.937413228
23.3955000753
22.0270439418
21.3914206424
20.9402079191
18.7537786719
14.3477141694
10.9222547893
10.4150464025
27.7565691729
70.8270360619
113.622564546
112.650081929
67.1229761629
19.9559636401
6.38186335856
4.53988901361
4.29102073586
3.70044549629
4.43662763036
6.17092476599
9.29410141862
13.285014355
18.0643076988
19.3015437656
18.6737725631
20.0472573304
22.6953418095
25.7889950611
26.3489629123
26.68442069
26.9914597242
25.2174800727
22.3377603693
20.3231770518
20.2098734894
19.9920308074
17.6587427271
14.3789702771
11.0671580232
9.80839550007
20.5752306676
56.5876235788
92.9265905385
101.449895066
57.9005740502
16.5669732168
5.48657147198
4.27948126116
3.77798163057
3.12960343367
3.75495061729
5.29307367817
8.42392912095
12.5945373994
17.4979573033
19.1271345386
18.8717810232
20.2233067904
22.7682125138
25.5194504288
26.0814551007
27.0476557418
26.4422376618
24.3125707664
20.9032170984
18.2438164665
18.348215649
18.3139133091
16.6940144099
13.7048652887
10.9291471651
8.80094537554
15.8135071576
45.052495014
73.7937364171
90.2851769008
48.9169099772
12.6717237611
4.6384694899
3.86084375303
3.07439589075
2.57726820413
3.14383528041
4.46733882099
7.44356064776
11.6819813098
16.5951043408
18.7255979586
18.9788566265
20.3029278197
22.7141890043
25.1063394805
25.7925820287
26.7110347226
25.7196503342
23.0784370813
18.9854429313
15.8279971886
15.8618707365
16.2485894538
15.5220176728
12.5580252152
9.77930288943
7.7191873702
13.4791777033
36.0823942631
61.8455039104
79.2397927173
38.9386723774
11.1177677666
4.73577192972
3.46022280117
2.50427173624
2.06222510205
2.5461492474
3.6993601657
6.37372860168
10.5392989916
15.4342509495
18.1168367345
18.9684461067
20.2780723937
22.4799727039
24.5206174762
25.3609628893
25.9697484354
24.7910200539
21.4621434416
16.6750504291
13.2210732213
13.0236138846
13.8901189447
13.8668695481
10.6804147722
7.90543679178
6.49019142418
11.3693853745
28.0112682096
47.5229969651
70.4915512382
32.049936612
8.93404304423
4.36337522352
3.11371119384
2.19493955458
1.70043125727
2.05751819764
2.98764819327
5.26751009174
9.19977773516
14.0690600888
17.2681148106
18.7725255707
20.081834271
22.0234281455
23.7547378257
24.765284853
25.0951452254
23.6057512242
19.4251277037
14.0842321561
10.6234825119
10.3060627556
11.5187110054
11.9974116127
8.42793297033
5.83045873482
5.2197007082
9.66973815133
21.0534038333
41.8958595048
59.4395894822
24.8801801074
7.81177118153
3.96777394821
2.81190531426
1.9780939619
1.42712553125
1.65288133894
2.35796043293
4.19119569786
7.72570710558
12.5151536379
16.1285074067
18.2834902822
19.6519634624
21.3255500943
22.8096731243
23.9839259995
24.0510412908
22.0351150306
16.9823649246
11.3865204705
8.23383715764
8.14291130159
9.66786348999
10.2009646894
6.07168356387
3.88327494844
4.19038502352
8.01745293577
17.5955364277
46.778624557
47.3418088292
19.6559170649
6.79856976957
3.60422705677
2.55675363965
1.76270576517
1.21166365997
1.32904474098
1.83296711274
3.2143389336
6.21645601479
10.754953337
14.6774856697
17.4067434945
18.9258414683
20.3777099768
21.6794105225
22.9643664628
22.7086265522
19.9937142748
14.2409831194
8.7871952687
6.21324557048
6.66153239982
8.6375574536
8.4396045762
3.92524813131
2.56053869414
3.42462400887
7.25554955127
18.3134364196
41.7758816033
36.640622006
15.6847631864
5.41217588767
3.2559038688
2.34320285793
1.58121344872
1.03502237196
1.07029043138
1.4184561969
2.39483980516
4.77287576296
8.80611735422
12.9251246302
16.0826855101
17.8459735461
19.1681755455
20.3414106058
21.6098740219
20.9475280009
17.4856905303
11.3861312924
6.4774212451
4.65213503163
5.87469462965
8.2742008139
6.18228974585
2.38509480833
1.7099742304
2.85391119661
7.11571489759
16.4238739318
30.847087763
27.1031982231
12.5329988601
4.97200183603
3.03103406177
2.192869373
1.44363180441
0.888127943105
0.860128657826
1.10304328825
1.75149560132
3.49179310614
6.80946027541
10.9184604183
14.3074640704
16.3675486538
17.6741978303
18.7571470664
19.8551559214
18.702915425
14.6199794065
8.64172108161
4.59169431207
3.56212144496
5.68916437267
7.56690896281
3.84634942101
1.5533191975
1.24460152926
2.19153727221
5.96767041188
13.4684533699
21.7601163309
19.7950802386
10.1629654175
4.29610860037
2.8448759418
2.09447079291
1.33983743612
0.767362094272
0.684238474904
0.863741126977
1.27391935822
2.44942938187
4.96172748789
8.74794998612
12.1475160218
14.4756528384
15.8673432411
16.8845962104
17.6814947519
16.0014380713
11.5964826823
6.21773111636
3.18418041745
2.88451359881
5.62694836834
6.28875934831
2.33757941127
1.10870544302
0.848938273825
1.46609427572
4.25726330073
9.79748696946
15.5245991563
14.8762784818
7.84756273278
4.06794990659
2.68172484358
2.03056869365
1.26053720382
0.67099669313
0.533505993024
0.674438444187
0.93498339205
1.67885554392
3.41190618013
6.54875518778
9.74136781028
12.2112127054
13.7339148969
14.7001585621
15.0887649018
12.9752711289
8.66487589368
4.26110170037
2.2277936755
2.51347136428
5.17516934836
4.96886246348
1.56756706209
0.72212288571
0.38799037014
0.948003975177
3.15401459674
7.39042073128
11.2763586052
10.3364803889
6.15452953633
3.96630755044
2.54705274766
1.97290060199
1.19926666586
0.598275096026
0.406458400394
0.512416828413
0.693125588749
1.15194735226
2.23403258655
4.49900814234
7.28829035825
9.69603415037
11.3083451216
12.2255458686
12.1622978104
9.85388726892
6.06646864192
2.82935233838
1.62587379785
2.20399186508
4.43314495566
3.94056878872
1.14670738773
0.306120734314
0.142851383241
0.685826987162
2.47369270339
5.55241742646
7.99497063693
7.35897589175
4.86028588447
3.63160495056
2.45163270111
1.90980137239
1.14650091438
0.546649353878
0.309383077977
0.364471847953
0.508465140033
0.802191217266
1.42258869567
2.84530159656
5.01755896101
7.13731619244
8.70881607142
9.54952486529
9.10065140863
6.92039688821
3.9735159017
1.87958685608
1.24521733098
1.77903303611
3.53895553334
3.31195173052
0.753768187518
0.100487278679
0.0713267833708
0.512847076401
1.98381414166
3.93030060922
5.33627950652
5.22409520701
4.03497813204
3.45060026047
2.40027471558
1.83463021637
1.08363898065
0.51243922708
0.247701248505
0.233819378585
0.352454023525
0.560931680643
0.909983215671
1.70035569691
3.13847843048
4.7920007657
6.15022039617
6.83973281649
6.19838028385
4.43837894091
2.47956434655
1.28537494441
0.942112186074
1.30118077075
2.5434617344
2.60387355127
0.36389304476
0.0336965267866
0.0511920754242
0.40793512092
1.6607206962
2.72802799728
3.54991541129
3.72632690291
3.36734353581
3.13753398757
2.38288494147
1.72765521436
1.0138432631
0.488177012721
0.212741411491
0.139148832197
0.217464597865
0.37868733517
0.592015251971
0.998539253274
1.78098432553
2.89022634058
3.89996327071
4.36689361241
3.77348435333
2.61831328119
1.50076916726
0.872386376472
0.683474933739
0.862756179284
1.59770047376
1.7511171462
0.124193947858
0.0130911641778
0.0458442651841
0.329731109508
1.37542496347
1.87700997186
2.20899626592
2.73274339157
2.88639589848
2.88543080266
2.30954606762
1.5870557394
0.929532537772
0.44916337577
0.18160971399
0.0825879974124
0.114911493388
0.229540868451
0.381006434082
0.598474334426
0.972081959275
1.55104784979
2.16963528081
2.44142460211
2.05742929975
1.43560753065
0.886034281204
0.581213540153
0.464674514133
0.515620091619
0.874540807473
0.892386040674
0.051297943456
0.00700483328324
0.0403929501052
0.251794009058
0.999124348146
1.21669127545
1.47633986004
2.12417582853
2.4685046467
2.62878252908
2.15828149589
1.40852216807
0.814756238311
0.388519038037
0.146636496194
0.0497034529547
0.0526497699479
0.115832195072
0.2234229744
0.359191722318
0.540754333242
0.79675516426
1.08610960501
1.22381711172
1.03725976641
0.760993516387
0.518985800091
0.363671597868
0.26215187968
0.216297884321
0.350577156716
0.262286833241
0.0153910847871
0.00429602402691
0.0277799665372
0.159423990678
0.634654951417
0.796368970213
1.12206279034
1.82028135898
2.21989112862
2.52321747176
1.85782825053
1.18509159342
0.665226186413
0.309897828364
0.107089745625
0.0288913245756
0.0215226127124
0.0482043453184
0.107093803125
0.195702596274
0.300168996262
0.416874721188
0.535261266914
0.592422395162
0.515558970522
0.403067059428
0.289435615228
0.187472812061
0.104376458855
0.0585167918761
0.0618941028506
0.0264862693882
0.00303623128888
0.00260562311295
0.016425863247
0.0873708663929
0.365585592209
0.566268540459
1.01197554251
1.68073471869
2.06960925076
2.1489157642
1.49006518875
0.931772904012
0.504865074505
0.223519358787
0.067569515674
0.0149301737198
0.00785081998127
0.0171787046095
0.0411292018365
0.0844764365667
0.145426532808
0.209345534088
0.262866767444
0.28594234668
0.251310424586
0.196303862048
0.128530246331
0.0698883216495
0.0331893123685
0.0146689584487
0.00690752689811
0.00214078376831
0.00081729387234
0.00153455971989
0.00989553784568
0.0496320346195
0.200896573583
0.458934150072
0.97701842218
1.59317999279
1.94569953754
1.68166337056
1.09686273155
0.66365023028
0.344945857469
0.130943151432
0.0332786060101
0.00613973733598
0.00248858719057
0.00530264602979
0.0133317225303
0.0291169497108
0.0537518629014
0.0830695389858
0.108645858133
0.118106596485
0.0981551387643
0.0704519505502
0.0418415255302
0.0208459341941
0.00896085844823
0.00343823782741
0.00119135828342
0.0003691157147
0.000279046765252
0.00079352043113
0.00574559359991
0.0305327411451
0.128423173809
0.389724325188
0.906443821194
1.59836130409
1.69329550397
1.1981524114
0.72950591822
0.406737105315
0.184220128671
0.0550806141803
0.0115871160674
0.00183377964273
0.000661413263475
0.00142804369127
0.00370768578885
0.00841105029472
0.0161652527396
0.025715693813
0.0338924409917
0.0362714976885
0.0288458360077
0.0197650752925
0.0110730179446
0.00516511067851
0.00206640468195
0.000727781219578
0.000228653343063
7.23418477782e-05
9.95547540686e-05
0.000301824150535
0.00272083925632
0.0176261536324
0.0841326219894
0.320261490886
0.800076338686
1.54394524865
1.31707316843
0.76974146498
0.421912297427
0.191435203735
0.0647119196617
0.0155846244491
0.00276713011884
0.000383817491634
0.0001460774141
0.000338693639817
0.000896253226385
0.00207237506902
0.00406237179167
0.00653558535776
0.00857439967135
0.00896993463869
0.00686548064437
0.0045296535444
0.00242390994531
0.00107773426615
0.000411255736355
0.000137967498757
4.1814098323e-05
1.37561594085e-05
2.8548031395e-05
6.86711630301e-05
0.000786316199347
0.00700313427296
0.0427266019343
0.213133778369
0.620423823787
1.28142399362
0.890688900484
0.453738361001
0.195620501284
0.0642671517138
0.0162422286846
0.0031108002957
0.000456840518272
5.63606057018e-05
2.78160386538e-05
7.16577107984e-05
0.000191151376729
0.000443781163583
0.00087177966696
0.00139376873718
0.00179650709854
0.00182317826147
0.0013481792224
0.00086328121114
0.000446871489952
0.00019250025361
7.14324278983e-05
2.34215278145e-05
7.07402856014e-06
2.35321149696e-06
5.3780719641e-06
9.23904243458e-06
0.000127154283196
0.00149825818953
0.0129653375985
0.0891893486361
0.370850488549
0.891140571868
0.503555973477
0.209706619405
0.0632217609369
0.0153892813499
0.00294340922948
0.000436657045644
5.25051057499e-05
6.12760744876e-06
4.84052478643e-06
1.36635264524e-05
3.64594956558e-05
8.4156694446e-05
0.000163305536318
0.000255545365452
0.000319596269524
0.000312088997174
0.000223542461574
0.000139681297417
7.06866780707e-05
2.99126781418e-05
1.09702941194e-05
3.58382465186e-06
1.09485987509e-06
3.54490203944e-07
6.59653870489e-07
7.79487374516e-07
1.20771618114e-05
0.000174165682621
0.00203782600314
0.0198083438889
0.130877687967
0.465086225562
0.206300226125
0.0567488985194
0.0132166671034
0.00251259048173
0.000375615637938
4.35631682778e-05
4.29894463882e-06
5.63405297503e-07
7.9781230414e-07
2.37096367202e-06
6.29323492971e-06
1.4356414252e-05
2.72301962653e-05
4.12297881879e-05
4.94808356544e-05
4.615978145e-05
3.20518634213e-05
1.96088913558e-05
9.78304161723e-06
4.11553582129e-06
1.51365979476e-06
5.00947369233e-07
1.56118453184e-07
4.9327056675e-08
5.7812653398e-08
4.67340433493e-08
7.89254799566e-07
1.30161386764e-05
0.000184050851131
0.00230827818336
0.0215915685915
0.141393944663
0.0409148978527
0.00889204166218
0.00178564299392
0.000280276122571
3.38601742689e-05
3.1478229478e-06
2.61590335899e-07
5.42988737762e-08
1.24971364533e-07
3.7849959958e-07
9.94010897931e-07
2.23444411149e-06
4.11437504024e-06
5.98022214283e-06
6.82668387712e-06
6.04895251841e-06
4.07167378175e-06
2.44181318257e-06
1.20966164226e-06
5.11604447674e-07
1.91443924933e-07
6.49355193231e-08
2.07516907597e-08
6.55398235697e-09
4.37078710608e-09
2.15905586425e-09
3.87583903917e-08
6.93345359882e-07
1.09590805395e-05
0.000158904038931
0.00185189965176
0.0184936629065
0.00422845293398
0.000896374382703
0.00016402242303
2.18555258119e-05
2.19556153988e-06
1.70111355341e-07
1.29216707254e-08
6.30489474932e-09
1.84279951062e-08
5.61889286567e-08
1.45529240557e-07
3.21638936507e-07
5.72211089465e-07
7.94545584237e-07
8.57769974411e-07
7.19201860456e-07
4.69173707775e-07
2.76043034441e-07
1.36760520185e-07
5.87934447274e-08
2.25860162081e-08
7.91426928717e-09
2.61733262539e-09
8.3985300509e-10
3.5823651073e-10
8.40682236003e-11
1.48986004685e-09
2.81016893293e-08
4.68297683797e-07
7.22285355956e-06
9.32955082683e-05
0.00119960606191
0.00027243385424
6.3054944846e-05
1.05794304756e-05
1.21835555345e-06
1.04727882591e-07
7.0523226131e-09
6.33193777015e-10
8.13162380106e-10
2.55736361483e-09
7.79949906786e-09
1.99350134718e-08
4.33866058032e-08
7.44308174998e-08
9.85051251494e-08
1.00253380727e-07
7.94780011805e-08
5.02782438017e-08
2.90547222745e-08
1.44646082627e-08
6.35521416651e-09
2.5234998669e-09
9.18638387916e-10
3.15209155897e-10
1.03307020758e-10
3.56426312426e-11
3.35581379024e-12
4.58408388515e-11
9.00438024452e-10
1.5361798131e-08
2.37741169988e-07
3.09169818393e-06
4.38026176207e-05
1.24731995089e-05
3.19731146276e-06
4.91981017376e-07
5.00879722838e-08
3.81116444317e-09
2.39896889195e-10
4.24068949728e-11
1.04544245858e-10
3.3474631646e-10
1.0196420287e-09
2.57175438632e-09
5.51487540231e-09
9.14533214416e-09
1.15561466586e-08
1.11009017197e-08
8.33632352499e-09
5.11905465168e-09
2.90218569956e-09
1.45553897865e-09
6.56666812619e-10
2.7048059104e-10
1.02792193842e-10
3.63666431705e-11
1.22055424168e-11
3.95080159888e-12
1.91523035967e-13
1.19249771098e-12
2.36098829137e-11
4.07187337783e-10
6.157184772e-09
7.53971835276e-08
1.01687064895e-06
4.39439139114e-07
1.21329519213e-07
1.72427276373e-08
1.59848172224e-09
1.13002247876e-10
7.84005656099e-12
4.01611282081e-12
1.27789451991e-11
4.12397792266e-11
1.26105204412e-10
3.14064819338e-10
6.64650473651e-10
1.06827243186e-09
1.29179828304e-09
1.17577223716e-09
8.40253722407e-10
5.01730443889e-10
2.79384885102e-10
1.4136042127e-10
6.55883814312e-11
2.80863146551e-11
1.10812626406e-11
4.02717711246e-12
1.38016083138e-12
4.41488216518e-13
1.70484574279e-14
3.10913657149e-14
5.36370080932e-13
9.26177003645e-12
1.36276788793e-10
1.53609886565e-09
1.74346332974e-08
1.27174772283e-08
3.69508809506e-09
4.91789406697e-10
4.32671131695e-11