/*--------------------------------*- C++ -*----------------------------------*\
| =========                 |                                                 |
| \\      /  F ield         | OpenFOAM: The Open Source CFD Toolbox           |
|  \\    /   O peration     | Version:  v2012                                 |
|   \\  /    A nd           | Website:  www.openfoam.com                      |
|    \\/     M anipulation  |                                                 |
\*---------------------------------------------------------------------------*/
FoamFile
{
    version     2.0;
    format      ascii;
    class       surfaceScalarField;
    location    "3.3";
    object      phi.air;
}
// * * * * * * * * * * * * * * * * * * * * * * * * * * * * * * * * * * * * * //

dimensions      [0 3 -1 0 0 0 0];
oriented        oriented;


internalField   nonuniform List<scalar> 
8788
(
2.17206852348e-05
-1.0476486049e-05
1.76859281216e-05
4.04461806675e-06
7.11335181168e-06
1.18577864266e-05
-4.38043075865e-07
7.55138714398e-06
-5.89103816424e-06
5.87712761425e-06
-3.44182635077e-05
2.60909537532e-05
2.53229027517e-05
-5.69426085015e-05
-3.1628035506e-05
4.90943601779e-05
3.83289594654e-06
-3.19732460757e-05
-1.8339462603e-05
2.68278235982e-05
-6.82268687147e-06
-1.60756686405e-05
-1.27029927979e-06
-6.59581721148e-06
6.77948068255e-08
-1.35374459919e-06
-1.88791585938e-06
2.02477010949e-06
4.20776682022e-06
-7.03986901785e-06
-1.72793275189e-06
5.06054243371e-06
8.62859365557e-07
-2.91133180193e-06
-6.79762118724e-06
7.27582107262e-06
9.26902857033e-06
-1.57108072219e-05
1.16448449405e-05
-3.56925756477e-06
1.62552873774e-05
-6.30336260565e-06
-1.54543635293e-06
1.95348969983e-05
1.53893651437e-05
0.000117591910594
-3.18409585359e-05
5.26719081151e-05
-4.60815903114e-05
1.42756200264e-05
-5.15927220929e-05
-1.4093905258e-06
-6.45436651931e-05
1.29509509258e-05
-4.84875360035e-05
-1.39708817791e-05
7.74727096983e-05
-0.000133432215389
6.97560062834e-05
7.14013429271e-06
2.32263435828e-05
4.6595348083e-05
1.05587947246e-05
2.13012910026e-05
-9.7933980284e-06
1.47664171427e-05
1.08859012758e-05
4.57126625957e-06
2.21192728724e-05
-2.60203205332e-06
1.27393537633e-05
-9.88340594299e-06
1.41994617279e-05
-3.79556230379e-05
4.70263268056e-05
3.92837758025e-05
0.00015975617011
-7.50847407651e-06
9.73660839847e-05
1.49376328504e-05
-5.45155227409e-05
1.06084465846e-05
4.19141683287e-05
8.68823947959e-06
-1.97303221796e-05
2.58104256412e-06
-4.63524396453e-07
2.47986172284e-06
-8.36861556955e-07
2.48189550189e-06
2.48166105309e-06
-1.92640169733e-07
-4.60854483269e-06
-2.85192261371e-06
8.5332511395e-06
-1.20818225974e-06
-4.85295086308e-06
-1.32398729678e-05
-1.35633370195e-05
1.23442018322e-05
-6.39364805062e-06
1.39921551392e-05
-6.62475594025e-06
1.5054142889e-05
-7.41178625633e-06
2.17693752697e-05
1.70274023538e-05
1.11663929499e-05
-6.22579149992e-06
-2.70365935763e-05
8.45499807571e-05
-4.41674377031e-05
3.57054610114e-05
-6.65232175547e-05
2.09965858727e-05
-7.89353246379e-05
2.42696031363e-05
-0.000105495660894
-1.19892504597e-05
0.000120746136753
-0.000503592771802
0.000120917783305
-9.23326249718e-06
3.91856496113e-05
0.000113009604066
1.81798933835e-05
5.26587781922e-05
8.29561173703e-05
3.18176756334e-05
3.11652492122e-05
1.10796951639e-05
4.98783164492e-05
-9.87038677229e-08
1.25921140907e-05
-9.89602810894e-06
2.50262962465e-05
-1.39015524029e-05
5.41330824962e-05
6.54875133431e-06
0.000110832488726
1.30153661404e-05
0.000108494680696
4.38738698941e-06
-4.97169465841e-05
3.15764083251e-06
4.33403837727e-05
4.28893908959e-06
-1.9255490005e-05
4.48689510703e-06
3.28718596228e-05
5.17539294342e-07
3.60633241454e-06
1.91331061247e-06
1.00275494981e-06
-8.62001019095e-08
-2.29454115388e-06
-1.60305941438e-06
1.00378836333e-05
-2.3575523041e-06
-3.75784706182e-06
-1.47537669675e-05
-1.88093004831e-06
1.16663245488e-05
-3.52016136205e-05
9.91859414011e-06
-5.23114654403e-06
1.09192081743e-05
-8.98916144327e-06
2.16725492645e-05
5.37678601863e-06
2.93096316966e-05
-1.4499082688e-05
-5.60959099624e-05
-9.75229810443e-05
-3.44498179944e-05
9.94935144677e-06
-4.45654413464e-05
3.2868571416e-05
-4.89009632051e-05
3.33039106312e-05
-0.000278118232938
0.000208442377024
0.00037810758056
0.000635805979213
0.000160159747225
0.000207178913194
4.15951972603e-05
2.94563635621e-05
4.60203538102e-05
3.82445597844e-05
5.73891686895e-05
2.68258863643e-05
4.55415024277e-05
4.17296232561e-06
5.23601774342e-05
3.80064092515e-06
1.37548292737e-05
-5.24562056257e-06
3.11958475709e-05
-1.07230262425e-05
5.57176412117e-05
-8.71083724927e-06
7.31278676305e-05
-6.21302101705e-06
7.93513615746e-05
1.00465238757e-06
-5.70428119269e-05
-1.32607407449e-05
4.52090113946e-05
1.00652297162e-05
0.000114234396202
6.8533869313e-06
3.9761078645e-05
1.77949334274e-06
8.7577880694e-06
1.88334378654e-07
2.57537832873e-06
-7.09722989257e-06
6.0378710594e-06
-9.29969679823e-06
1.14747713491e-05
-4.48613267099e-06
-9.97415213929e-06
-1.40482751478e-05
6.64899208209e-06
1.4718105358e-05
-5.67652913943e-05
8.49959844449e-06
6.76376415747e-07
6.36005228822e-06
-6.89378006123e-06
1.78059226816e-05
-5.72018212484e-06
1.56143841573e-05
-1.47845611264e-05
-3.72947895615e-05
-6.85562545457e-05
-2.68899798262e-05
-3.68029967086e-05
-4.19341118178e-05
3.84526244966e-05
-8.0636402772e-05
9.23956372614e-05
-0.000151092936615
0.000273488627473
0.000147806692937
0.00038613274271
5.12753500751e-05
0.000264508901649
3.17339746793e-05
5.4985384241e-05
5.10110552146e-05
3.62716291692e-05
0.000185174587983
2.32087950947e-05
5.64300543462e-06
9.74600732577e-06
4.71236931546e-05
3.57644383133e-06
2.69109979677e-05
-5.27727998821e-06
3.04011076799e-05
-3.89645743073e-05
0.000109771433534
-2.3295451699e-05
4.67757128866e-05
-3.90276850209e-06
7.20884333394e-05
-4.06865434938e-06
-0.000127292256826
3.27833783276e-05
7.65958510117e-06
-9.17086249885e-06
4.57419266866e-06
2.33520111894e-08
3.32567038431e-05
-1.68134200796e-06
8.73444317699e-06
2.95283908103e-07
7.46060296081e-07
-1.34897562355e-06
8.48004153489e-06
-5.61071347383e-06
1.77263906774e-05
-7.36646619915e-06
-7.32327041992e-06
-3.64333343269e-05
3.97175625893e-05
3.02697128491e-05
0.000107326059688
4.86467684654e-06
8.21504161909e-06
5.26169723642e-06
-8.31743645104e-06
2.48336394595e-05
-2.48006840279e-05
4.0781537284e-06
-1.09927574038e-05
-1.84478018671e-05
-5.59286098191e-05
-4.18099026793e-05
-5.25100591332e-06
-4.76899167887e-05
4.4574015432e-05
-6.75943692727e-05
8.91446460113e-05
-3.39109171369e-05
0.00029510040176
5.58149864698e-05
0.00028847244559
6.4400250729e-05
0.000291982941356
5.45677373302e-05
5.79934876669e-05
0.000104558241887
4.19048390877e-05
9.32038336764e-05
7.38311307211e-05
-5.46676068137e-05
3.35560476162e-05
7.72741425382e-05
6.89507095654e-06
3.70526230555e-05
-2.07000781003e-05
4.20454096766e-05
-3.35813960823e-05
0.000101013261258
1.04598964692e-05
-8.89237481475e-06
-8.28179576732e-06
8.18174678624e-05
6.01088001747e-07
-2.15154913403e-05
9.86252176193e-06
6.75382043605e-07
-1.01695656057e-05
2.47645060057e-05
2.0096298516e-06
2.11939909286e-05
4.00440105174e-07
1.06514607849e-05
-2.06958766138e-07
1.26292548293e-06
5.65277153133e-06
2.46042983048e-06
2.08843812766e-06
1.99504764472e-05
1.29976199292e-06
-6.66508705182e-06
-7.27858534589e-06
4.47237206168e-05
1.78126032005e-05
9.33020893859e-05
8.82346456598e-06
3.22730447271e-05
1.28800626674e-05
-1.20946629734e-05
4.43519635905e-06
-2.39932936117e-05
7.08752766657e-06
-1.34346296154e-05
-7.69235545615e-06
-3.04923541897e-05
-2.93690191168e-05
1.59544080082e-05
-4.16652595373e-05
7.16412152511e-05
-3.90656052503e-05
8.3074609397e-05
-6.72656126563e-06
0.000222285949441
2.9169020386e-05
0.000228687112715
2.53600811596e-05
0.000231671230037
2.21080270197e-05
6.70975930256e-05
0.000104464458388
-1.77424707992e-06
7.73367662891e-06
2.83986771548e-05
-2.13647597203e-06
3.42783417111e-05
6.70815572471e-05
1.01067391699e-05
5.67029199109e-05
-3.91584008487e-05
7.88087338354e-05
-3.4034082421e-05
0.000101994010934
-1.7264178963e-05
0.000104211444747
-7.41672962801e-06
7.19267009536e-05
1.32722601421e-05
-8.94476535646e-05
1.26274500905e-05
-0.000200498597516
-9.68944214748e-06
4.62508123569e-05
-2.71051434015e-06
1.16909632307e-05
2.0289475356e-06
7.40504565523e-06
-7.81451075332e-06
1.1404956131e-05
5.86537862942e-06
9.0684194601e-05
-7.28123652047e-06
2.97628373431e-05
-1.59706740167e-06
-1.03397293989e-05
4.20752055306e-06
3.91345429449e-05
6.0720455231e-06
6.57302590864e-05
2.330820886e-06
3.94978258741e-05
7.20624009644e-06
-1.69004221636e-05
-1.79512646444e-06
-1.61454651184e-05
1.39184241708e-05
-3.34449973086e-05
-2.02170968634e-05
8.39215787527e-07
-1.55818822322e-05
1.14334962169e-05
-2.85826628727e-05
8.57931567866e-05
-3.16826512378e-05
0.00011166893871
1.01380038916e-05
0.00017979424261
3.24127966229e-05
0.000240489263196
7.62365754064e-05
0.00019235571628
4.08502380656e-05
0.000104564930502
6.12704379286e-05
7.44761197336e-06
3.0654055055e-05
1.86598923469e-05
-1.41689649136e-05
3.72590660295e-05
5.15637974759e-05
1.63737473437e-05
9.38355026531e-05
-1.52492449814e-05
0.000106361728458
5.41112888073e-06
0.00010994499269
-1.98609261505e-05
-4.61894649275e-05
-4.99839355542e-06
5.40223098028e-05
-1.82586619854e-05
6.58812664474e-05
5.78613003629e-05
6.51820984429e-05
-1.60664162671e-05
-0.000170747993514
-8.43150823143e-06
3.66307334466e-06
-1.92778238389e-06
-7.70932897439e-07
-6.06402824831e-06
1.60366104171e-05
1.51395657878e-06
8.84860699573e-05
-1.81047549174e-05
5.05828997665e-05
-7.3100437237e-06
5.22336998176e-05
-3.14622688689e-06
3.60709138638e-05
-9.02312001313e-06
7.04140956422e-05
-8.48708023719e-06
3.96408651579e-05
-1.18106847047e-06
2.6861531332e-05
-3.83322185078e-06
-1.36121390825e-05
1.17968330211e-05
-4.49398364895e-05
9.4176222719e-07
1.19506668475e-05
-4.65454800499e-06
1.53033019047e-05
-1.9075319034e-05
9.67428257466e-05
-1.48809991764e-05
9.94734759374e-05
9.00664488061e-06
0.000172201537269
-1.35711791404e-06
0.000182854214214
4.32236520888e-05
0.000210642036526
1.95547361221e-05
0.000124738127458
3.67239937365e-05
1.28495239687e-05
5.18561619745e-05
3.78859966514e-06
-1.10303344778e-05
3.07074019194e-05
7.75027356474e-05
2.47803704945e-05
7.13711836392e-05
5.6049607467e-06
0.000138742848969
-9.59835810167e-06
8.69481593502e-05
-1.25069848027e-05
9.94027807204e-05
9.4928066122e-06
3.49595483638e-05
-1.25270209927e-05
-4.1337630902e-05
4.46269976398e-05
3.99284017803e-05
-1.25193993265e-05
-0.000134397142444
-5.13566971728e-06
-4.74733044203e-06
-7.24220878328e-07
-5.76391958169e-06
-2.48810585478e-06
1.55448545442e-05
5.64057193801e-06
7.97042256383e-05
-4.63213168104e-06
5.88464160315e-05
1.27576514315e-06
5.3639936638e-05
2.19814639165e-06
3.52392169189e-05
2.99828292425e-06
7.91166890477e-05
-6.17685338039e-06
4.81521164644e-05
-6.54424988376e-06
2.98816142374e-05
1.01763726373e-06
-1.40016097545e-05
1.62523222937e-05
9.78050715019e-05
5.93125934629e-06
2.03374621207e-05
1.86454555386e-06
1.91095926678e-05
-2.03885687595e-05
0.000103262072562
-2.47218469112e-05
0.000102621988127
2.12781510508e-05
0.000172277465903
2.4832093959e-05
0.000190281963167
2.79583600199e-05
0.000202784408636
2.17092625986e-05
0.000107035086483
0.000176037832287
7.98184708052e-06
4.72334183346e-05
-9.99691800527e-06
4.30327908397e-05
2.5023207324e-07
5.32693778482e-05
3.5050573937e-06
7.11808882352e-05
1.57321705165e-05
0.000142622031253
2.31951226973e-05
8.84454047111e-05
-1.38181829001e-05
-6.14332519938e-06
9.69723152374e-06
0.000152669271448
-9.45022099987e-06
-1.96005513934e-05
7.33842389735e-06
-8.13746955924e-06
-1.56347299296e-05
-0.000106943984535
-4.48985739486e-06
0.000232267894209
-1.6436823945e-06
-8.55750939528e-06
-4.48027611386e-06
1.75599563295e-05
-2.53605076519e-06
6.7381834404e-05
-8.09942324977e-06
6.97336317567e-05
-8.48007810085e-06
5.22210991587e-05
-4.07644390936e-06
3.60775518515e-05
-1.5529303422e-06
7.94582321114e-05
-6.2086196871e-06
5.25074283814e-05
-5.4519217756e-05
9.08005174256e-05
3.57703267176e-05
-9.18081857507e-05
6.0709199321e-06
-1.7739029489e-05
1.15367789103e-05
-0.00016190647058
3.34084708111e-06
3.07118820541e-05
-1.47864005853e-05
0.000145931436788
-7.03632103253e-06
0.000116177144453
7.92222546629e-06
0.000185904280519
2.74476438438e-05
0.000191861116305
1.49587692585e-06
0.000185638869673
5.36308541721e-05
0.000576164110484
3.55323521837e-05
1.9485394048e-07
5.63837731884e-05
1.45690863774e-06
7.6273474977e-05
-6.57293967507e-06
3.1134487098e-05
6.59695028136e-07
8.04633845305e-05
2.10354262438e-06
0.000143946097066
9.10815025773e-06
9.865083738e-05
-1.85394914608e-06
4.61045096803e-06
-5.88787895395e-06
1.27931330884e-05
-5.69952153459e-06
-1.92152184256e-05
-7.57851573593e-07
-8.5759841668e-06
-8.23757921639e-06
-4.92292773622e-05
-3.16156330665e-05
3.16651508018e-06
2.13976563622e-06
0.00010627903552
-2.75759498652e-06
0.000178951988803
1.36998859305e-06
1.72194870557e-05
-1.59814464511e-06
6.7438405951e-05
-6.84074496188e-06
7.12409685943e-05
-2.59120653705e-06
2.8045603517e-05
4.33601864683e-06
7.90114685401e-05
-8.95292206404e-07
5.57566762884e-05
-5.11567584078e-05
0.000139848874928
2.13837163314e-05
-0.000209800019523
-4.22260426677e-06
1.12424696439e-05
2.31841711647e-05
-0.000170647985259
6.27707033157e-06
4.81084236934e-05
-3.10204046758e-06
0.000165713174284
6.98989101949e-06
0.000112022420576
3.38739925451e-07
0.000163713946453
2.25340713499e-05
0.00015784562708
2.22303766031e-05
0.000206887687298
-2.84789442913e-06
0.000281022715125
0.000121256824558
1.39935266688e-05
0.000320692002761
-4.64231848826e-06
2.63289778584e-05
-1.17719110398e-05
3.70880538423e-05
8.21927860242e-06
6.84933057052e-05
1.02767418025e-05
0.000141056418317
5.42495995254e-06
9.40722636843e-05
-2.96224376407e-06
1.34749750308e-05
-8.12983460137e-06
1.88173006885e-05
-6.84064052053e-06
-2.10524130126e-05
-8.40254939947e-06
-1.16541100926e-05
-1.34398308004e-06
-9.03410538136e-05
-3.70535290119e-05
3.61333796773e-05
1.56068179357e-05
0.000137117510146
-2.54677763887e-05
0.000127500080481
1.2596500451e-07
0.000264158506601
3.97802233566e-06
1.76680376148e-05
-1.29524939864e-05
-7.91076311839e-06
-1.04939616754e-06
5.97813512179e-05
6.57944651448e-06
7.06055356311e-05
5.03000061356e-06
4.98415533016e-05
-5.08573850847e-05
0.00021182977015
2.8212261557e-05
-0.000322796559869
-1.23198969177e-05
4.62122929537e-05
8.04865825846e-05
0.000140078952205
-3.21030159408e-06
0.000134388589811
1.00528981847e-05
-3.28425673292e-05
5.58411834075e-06
9.33860253634e-05
5.40373882487e-06
0.000142994070668
1.35977407726e-05
0.000161155293067
2.1761560298e-05
9.78748834794e-05
-1.39769337431e-05
0.000113322188941
0.0003505744999
-4.76654901373e-07
6.34896542519e-05
-1.5858729969e-05
4.06554967138e-05
-1.46380689181e-05
3.76759227581e-05
4.91711438229e-07
5.32738391614e-05
1.07844967744e-05
0.000136436451408
9.94299561562e-06
9.18620374876e-05
-3.63898883738e-06
2.5901481885e-05
-5.25627971578e-06
3.92492912133e-05
-7.49267436e-06
-1.81671955479e-05
-1.53806285273e-05
-3.69632036613e-06
7.60194197304e-07
0.00015929534135
-2.05233349526e-05
5.78992835705e-05
1.65651589667e-05
4.40982054801e-06
-8.10360787649e-06
0.000102126728887
-1.22185639407e-05
-3.87325931847e-05
-2.32941434569e-06
5.0433046477e-06
-3.74628931523e-06
0.000113683241917
-5.20738659548e-06
1.51308191008e-05
3.46019234076e-06
7.0120707343e-05
1.75547189942e-05
3.77842336046e-05
-9.61457699351e-05
-9.31315454819e-05
5.45992651079e-05
0.000408330928746
1.06396290225e-05
7.99048744711e-05
5.64897173944e-05
0.000120862161679
-8.9408007009e-06
0.000142453091354
1.87220493085e-05
-6.9272382651e-05
-6.60990034135e-06
0.000238583224775
2.26245626095e-05
8.7424753522e-05
3.02521599587e-05
6.63063399383e-05
3.26570362327e-05
7.35895642863e-05
-6.90417722505e-06
2.28069824055e-05
0.000158601142163
6.87162874313e-06
0.000211644843476
-9.15529669442e-06
5.84947568046e-05
6.09288180491e-07
2.83366304312e-05
7.88074469976e-06
5.66964709894e-05
1.38804249123e-05
0.000137396308809
1.86195472671e-05
9.44231884208e-05
-2.77767645118e-07
4.07425540857e-05
-5.23248108595e-06
2.50997643917e-05
-1.12141662728e-05
-1.29902324083e-05
-3.35913292644e-06
2.22156749347e-05
-1.42951075212e-05
0.000197257118435
-3.47449591267e-05
5.2048398618e-05
1.46425091239e-05
-6.17351258037e-05
-2.35629358403e-05
0.000260525936041
-1.7071990048e-05
0.000128535872907
-1.5769083899e-07
4.01629014418e-05
-3.33152301775e-06
9.31442621638e-05
-4.86546973541e-06
1.69414465538e-05
2.73244472786e-06
5.6214890168e-05
5.95170204214e-06
4.05173990274e-05
-4.99727299028e-05
-3.41604953939e-05
1.93725085519e-05
0.000195553040431
4.96521839738e-05
0.000205165484766
2.4329136261e-05
0.000137638564166
-1.41536158816e-05
0.000188692396365
2.23517733187e-05
-0.000101693623826
2.28844688142e-05
6.73207880257e-05
2.32690905938e-05
8.40987309205e-05
1.86018780409e-05
6.3722738337e-05
3.95120179289e-05
5.11365819081e-05
1.20387451535e-05
4.78351896112e-05
8.03506556543e-05
1.05518412136e-05
5.62807893936e-05
-2.12658796808e-05
8.5825306572e-05
-6.39492186212e-06
1.33493857558e-05
1.91354984119e-06
9.56377077821e-05
3.48916000912e-06
0.000131519925045
1.52056488173e-05
0.000143970273628
3.55562579699e-06
4.86398602215e-05
-1.06141186923e-06
3.00403968922e-05
-3.10342726744e-06
-1.12116521592e-05
6.98999271188e-06
2.43870144882e-05
-2.74564204477e-05
-3.86261397266e-05
-4.16074876924e-05
6.2672664098e-05
3.76793245207e-05
0.000186975181738
-2.52383060218e-05
-0.0001098186924
-2.6549846565e-05
-3.8192351891e-05
1.69910009386e-06
3.25331511785e-06
-7.79821674701e-06
1.16112317336e-05
-7.10006423881e-06
1.39963209913e-05
-1.43654512059e-06
4.85710890429e-05
-5.42342196858e-07
3.94926806186e-05
-3.20853183682e-05
-6.29041119654e-07
3.42931804002e-06
0.000236912424449
3.59254605054e-05
0.00021105193164
3.45213641092e-05
0.000145773086105
-4.01771509374e-05
-0.000334413642983
6.29043758053e-05
0.000484059873567
1.8990595246e-05
9.97023739593e-05
2.54547479466e-05
5.76135728501e-05
2.06788489805e-05
6.79085808842e-05
3.71084379682e-05
3.2425868941e-05
2.10418102225e-05
0.000247018180254
8.26190868053e-05
1.57381924403e-05
0.000204253425829
-1.32274429614e-05
0.000145881980748
8.43412411499e-06
-9.06438997361e-06
-4.68303494908e-06
5.93834135076e-05
6.34878931197e-06
0.000123743498638
4.96525659209e-06
9.43249654246e-05
1.01819271414e-05
5.01745097908e-05
-8.31577110284e-07
3.77739902772e-05
3.74508297302e-06
2.28444881834e-06
2.06547573719e-06
4.79238791188e-06
-2.42780876959e-05
-3.6336670735e-05
-3.01515176213e-05
7.07914905105e-05
3.35088791111e-05
0.000137186509197
-3.18688825075e-05
-1.3847895413e-05
-3.62858341543e-05
-2.18240667436e-05
-5.97127796886e-06
-2.9726321265e-05
-7.23690521429e-06
7.20097892244e-05
-6.18206649813e-06
6.67562863757e-06
1.68820612161e-06
9.97319767584e-05
-8.69456113756e-07
3.40566288835e-05
-1.05257438392e-05
9.47939154052e-06
5.80444394719e-06
0.000213354284862
1.87808974381e-05
0.000264356235087
9.18151083694e-06
0.000122809471726
-8.12323001187e-06
0.000278729245881
5.0514370682e-05
0.000281370808134
3.25868707151e-05
0.000116659565876
2.59889127525e-05
0.000139399890513
1.48983006055e-05
7.72976455878e-05
3.84968741795e-05
5.77084846343e-06
2.42611650203e-05
5.99899474738e-05
7.67149344613e-05
2.6286918488e-05
7.14875427395e-05
-2.65409570532e-05
3.89575788408e-06
1.26397572129e-05
0.000156141367884
5.66390685795e-07
6.91388755613e-05
1.74158679108e-05
0.000120619952364
-5.87771411285e-07
9.84288452704e-05
7.20436125794e-06
4.1920788509e-05
4.96175429557e-06
4.73751680421e-05
6.40956523297e-06
3.18685406941e-05
-5.08727435024e-06
1.8195360231e-05
-2.25402926626e-05
-1.83655243795e-05
-1.95275381014e-05
6.79186040474e-05
6.79930388966e-06
0.000206192853016
-2.05816586059e-05
-9.37667519962e-06
-2.49445899955e-05
-1.34898730012e-05
9.57264297783e-08
2.55163010478e-05
-8.72891318516e-06
-7.1660179086e-05
-6.32868345404e-06
2.27632042195e-06
-2.78362173138e-06
4.18281546263e-05
-9.22205464847e-06
2.53267162582e-05
3.84017451538e-07
0.000187188239589
3.34479268038e-06
0.00011970206436
1.56314260299e-05
0.000121369892428
2.34103004363e-05
6.50602547492e-05
-2.06146087539e-05
-0.00014224084566
3.00012251303e-05
0.00016940406129
3.95565300349e-05
7.92644839068e-05
2.14224187033e-05
7.66838434544e-05
1.50400564656e-05
7.31205954588e-05
3.20154726603e-05
-1.03271594661e-06
2.21847696211e-05
5.8643155982e-05
8.57731209043e-05
3.11794883927e-05
0.000158818667002
-5.0444545093e-06
9.48468543188e-05
1.01572450235e-05
0.000124371630798
5.27680689941e-09
7.64363664576e-05
1.427266271e-05
0.000106586144175
3.53299476152e-06
0.000105595485373
1.40308118978e-06
4.12069334557e-05
7.07347520741e-06
0.000146439055844
1.16565725451e-05
3.13306681926e-05
-8.58300119058e-06
-7.02452626802e-06
-2.15094879976e-05
1.69392517755e-05
-3.79901746941e-06
0.000136721134622
-1.20067094106e-05
8.49129811755e-05
-1.1747447367e-05
-1.04031518211e-05
-1.71341545387e-05
-2.69767442179e-05
-7.40444217679e-06
4.45649025931e-05
4.04942814197e-06
7.31360250542e-06
-4.37659653599e-06
7.84053417075e-05
-1.41491816633e-06
3.72523473297e-05
-3.01731951126e-06
7.18636966039e-05
-2.08791211849e-06
5.22388082441e-05
-1.64103292573e-06
7.78247211419e-05
2.16416072162e-05
0.000298052944597
1.4639818525e-05
4.00896515057e-05
-1.63727672368e-05
-7.87327480844e-05
1.28922727719e-05
0.000114707637826
3.59225087866e-05
0.000129891933931
2.72216459954e-05
8.28461278566e-05
2.05355508973e-05
9.80208500576e-05
2.70227261803e-05
2.78123253987e-06
2.90841628332e-05
5.92368241814e-05
7.95107301123e-05
2.4389573662e-05
2.47696234681e-05
6.72546801573e-06
0.000112078217103
7.25572607186e-06
0.000113975578787
1.11320307584e-06
8.02431053617e-05
1.64157995233e-05
8.64463592562e-05
1.79236515052e-06
0.000122697477481
4.64897742182e-06
3.56061162969e-05
3.26463764443e-06
4.87518542832e-05
8.21950919672e-06
0.000140661513493
-8.63372264359e-06
5.23467200979e-06
-1.61480785811e-05
4.21948007596e-05
-4.79291976865e-06
0.00010217373921
-1.49532444009e-05
9.42495133025e-05
-1.20338202511e-05
-1.42421353817e-05
-1.51991410103e-05
7.88661771265e-07
-8.85702410946e-06
-1.36464351271e-05
1.50630134044e-05
-3.97440120404e-06
-5.60656527764e-06
-3.80778986095e-05
1.43892472506e-06
2.85939858549e-06
-8.88101992542e-07
1.8351230131e-05
-8.91088094162e-07
-1.7607337012e-06
-5.61516562173e-06
5.60151425723e-05
7.76174740312e-06
0.000144987425541
9.31544714994e-06
3.55527011659e-05
-1.27118487312e-05
-5.04638496357e-05
1.19981961122e-05
8.74168742723e-05
2.35929078477e-05
2.07187919767e-05
3.13235015862e-05
8.27381687951e-05
1.78763823902e-05
0.000101236351084
2.59370482609e-05
0.000142428199089
2.77224645841e-05
5.22554476923e-05
6.71308155003e-05
3.24140690434e-05
2.81556029825e-05
2.02515303961e-05
0.00012884803411
5.82514260137e-06
0.000116991274507
2.0619873877e-06
5.61643727341e-05
1.95972255366e-05
6.91652158384e-05
1.77432622259e-06
9.95689771968e-06
8.34268950045e-06
0.000139577156621
8.68967732003e-06
4.7506502472e-05
-1.86766238257e-07
2.93900974554e-05
-8.96152880627e-06
1.58716981728e-05
-1.24548492786e-05
8.64467601573e-06
-1.16482902245e-05
0.000108571625095
-1.83210976787e-05
0.000107872326632
-8.66033099358e-06
-2.64176925379e-05
-1.23003330197e-05
4.82179540354e-06
-5.50862859416e-06
4.209050203e-05
8.34623621645e-06
1.06745770055e-05
-1.56405983447e-06
-3.65165821784e-05
6.19599283274e-06
-5.19793713463e-06
3.76895571613e-06
2.76458704148e-05
2.84531615056e-06
2.28553134601e-05
9.23926513156e-07
4.8302733994e-05
-6.93699847702e-07
2.7380153424e-05
6.18754710755e-06
6.16292803466e-05
-7.93199199244e-06
-9.98999356223e-06
1.30796282936e-05
6.08706439844e-05
2.18152981586e-05
9.93354438789e-06
3.12008940113e-05
9.03257070736e-05
2.4478342497e-05
5.42641250325e-05
2.24150744913e-05
2.34012758439e-05
2.39162812165e-05
5.00672343326e-05
5.82427452742e-05
4.36686533224e-05
1.62384831292e-05
3.44428714353e-05
0.000164985640014
4.44616895184e-06
0.000151408342157
2.13927650169e-06
9.20961856119e-05
2.2154021223e-05
1.6394714115e-05
1.04444547499e-05
7.63683029726e-05
8.32060527597e-06
0.000146648955146
1.54022719749e-05
4.68546111322e-05
2.43648136555e-06
4.25248691914e-05
-7.36194384795e-06
2.35424614663e-05
-1.53586221884e-05
4.87525369482e-05
-2.28753969175e-05
6.96228326226e-05
-1.38400915915e-05
5.3798928182e-05
-8.44430089919e-06
-3.15092990524e-05
-1.0642682655e-05
8.37357900387e-06
-4.12691345794e-06
0.000169997283557
7.29470122429e-06
7.33632128682e-05
3.0427558297e-06
3.76526894744e-05
5.59698253693e-06
1.28470413957e-05
8.12175079047e-06
0.000134939645944
2.28438220397e-05
-1.52256733064e-05
2.58556902324e-05
4.16911977923e-05
7.18340310231e-06
4.37709747715e-05
2.07287526605e-06
2.89947687492e-05
-3.26266589726e-06
-2.34888003274e-05
1.42840138941e-05
3.83936587794e-05
2.28069507399e-05
1.67820413782e-06
3.47838773944e-05
0.000119440920098
3.17934540892e-05
5.44535248188e-05
2.98297331981e-05
2.61426515893e-05
2.79706949692e-05
5.10152857235e-05
4.84617363773e-05
4.22247606785e-05
7.53902413144e-05
4.47965702139e-05
0.000148433967105
8.2832315313e-06
8.13065589333e-05
-3.96566063178e-06
7.33866709819e-05
3.03224502665e-05
0.000119338110978
1.91770448141e-05
8.83806390536e-05
5.00529743886e-06
0.00016173241785
1.05295478824e-05
3.71728770715e-05
1.63868501847e-06
5.1106062939e-05
-6.53449106628e-06
7.29012931219e-05
-1.97349774505e-05
2.84766583211e-05
-1.72676680424e-05
6.67122668303e-05
-3.78464591044e-06
4.19340449556e-05
-8.73958857419e-06
-2.48373752417e-05
2.07396984467e-07
-2.56662621638e-06
-3.56775237031e-06
-2.2207440357e-05
2.48937238384e-06
-3.49491453601e-05
-7.83986562305e-07
-4.28834391584e-05
1.17316951508e-05
2.7800861229e-05
7.8520657803e-06
3.4754763498e-05
2.4007363e-05
-2.87535690423e-05
3.82942717955e-05
2.55822341693e-05
2.31001922325e-05
5.89650457592e-05
1.37224165136e-05
3.74928027839e-05
-6.43735957278e-07
-6.67630749408e-06
1.57125676423e-05
1.69977861395e-05
2.68822597946e-05
-4.1626874494e-06
2.93237389667e-05
6.05650074344e-05
3.30327353147e-05
4.70857160999e-05
2.95089624546e-05
3.05810518238e-05
2.94847246836e-05
1.85915074133e-05
8.29031252263e-05
2.9268414148e-05
3.28920796209e-05
3.83233194941e-05
0.000162667768498
1.74845812594e-05
9.55012399712e-05
-2.34947711641e-06
8.45859808614e-05
2.85806981778e-05
8.72850979206e-05
2.20376346826e-05
9.62500242532e-05
5.70460808375e-06
0.000110482030899
1.75161429785e-05
9.80530962279e-05
1.28231277567e-05
5.89959403952e-05
5.19971989638e-07
3.71994673575e-05
-1.54275385606e-05
4.1606758832e-05
-1.54239711926e-05
6.75084854924e-05
-2.38156128487e-06
2.98799928258e-05
-4.87366205597e-06
-2.04750694992e-05
2.55827157414e-06
2.74372057538e-05
1.36887186662e-06
-2.06547180322e-05
3.36978747624e-06
-1.61637366549e-05
4.58804960175e-06
-1.04488804236e-05
6.71228178519e-06
-2.2952853276e-05
4.90193807251e-06
2.19277576725e-05
1.97533890475e-05
-3.55703094282e-05
3.81125521561e-05
6.36430205476e-06
4.28659424583e-05
5.42116444827e-05
3.26234002555e-05
4.82752859164e-05
7.9661374896e-06
4.62149593873e-05
1.45738168728e-05
9.82508368458e-06
2.13135424641e-05
-8.59900751379e-06
2.67598121141e-05
5.30698658789e-05
3.58456025585e-05
3.84789058362e-05
3.50937994321e-05
3.45965726538e-05
3.06715023049e-05
2.89766916456e-05
5.3278727974e-05
3.88941098829e-05
3.61007306344e-05
4.1715349676e-05
0.000202679295013
1.69269629776e-05
0.000133639569928
-4.92446700255e-07
6.76494747446e-05
3.04097725934e-05
0.000100669196386
2.40514263531e-05
9.7624791962e-05
7.07311722227e-06
0.000115020001565
7.96683872105e-06
0.000102605993355
8.75985337914e-06
5.64266837548e-05
1.55726294752e-05
9.50620640926e-05
1.87066891233e-07
4.6227844099e-05
-1.00039880472e-05
6.96103409705e-05
-5.45587283733e-06
2.43272969762e-05
-8.42825082369e-06
4.95310171922e-05
-1.90562936129e-06
3.11688891398e-06
2.29634295942e-06
-2.51393271101e-05
4.82006731752e-06
-2.09845451933e-05
4.71949773234e-06
-1.64075525738e-05
1.15724583057e-05
-2.91159071124e-05
1.66753480613e-05
1.48914642713e-05
2.25720564461e-05
-5.17047858534e-05
3.41250577096e-05
-5.42938562518e-06
4.4084773946e-05
4.42518715078e-05
5.20925346104e-05
4.0267483733e-05
3.36773869874e-05
3.27522317544e-05
2.60403868006e-05
1.79255794073e-05
2.04203034239e-05
-4.59331873135e-06
4.75800432595e-05
2.30725832943e-05
5.23792213953e-05
3.64133912412e-05
4.26601448888e-05
4.94069000277e-05
2.56499092132e-05
3.00618616096e-05
0.000298433640861
4.42702293003e-05
1.22560395935e-06
3.72394054455e-05
0.000147841548218
1.5319581064e-05
0.000101630900332
-1.22268278139e-06
0.000129594210059
3.08889432418e-05
6.68581515108e-05
3.04856077673e-05
9.58076615213e-05
1.60917099061e-05
0.000127029443473
2.85018975083e-06
9.43487773384e-05
2.07419529187e-06
5.27466555275e-05
-1.20480349472e-05
5.62835133975e-05
-1.64638869523e-05
7.82773725441e-05
-1.29560578153e-05
6.56997893895e-05
-6.35815454681e-06
4.17494056231e-05
-1.4965206926e-05
-8.51326445671e-06
-2.6687684689e-07
-2.61152648296e-05
9.02780661965e-06
-2.75252268386e-05
8.55305209537e-06
-3.61596695618e-05
2.70675424516e-06
-2.6694040687e-05
1.26908725934e-05
-3.39821725371e-05
3.32742121689e-05
-3.75057753937e-06
3.32412319157e-05
-5.3267062392e-05
3.19990203601e-05
-4.18713923346e-06
4.33610516395e-05
3.28898378913e-05
5.94752305685e-05
2.41533181734e-05
6.17918217472e-05
3.05032892682e-05
4.68789437891e-05
3.31265803149e-05
2.86436197767e-05
1.44732759434e-05
3.53452385814e-05
2.0033697148e-05
3.69507582814e-05
3.82443804019e-05
5.19580877013e-05
3.61710308062e-05
5.63510528624e-05
1.49000024844e-05
0.000102719288079
6.51873704134e-05
8.80496116132e-05
5.8312562696e-05
0.000143692797923
1.94709136832e-05
5.30447384546e-05
-9.17003190572e-06
0.000108690397108
2.5749627849e-05
0.000190101562361
3.16880074247e-05
9.48779703134e-05
2.51434355162e-05
0.000141054177546
7.0332855576e-06
4.30779833323e-05
-2.60113629546e-06
6.32040122258e-05
-1.42074426458e-05
8.32512157224e-05
-8.56926283339e-06
7.16489702919e-05
3.89069417081e-06
0.000198817315192