/*--------------------------------*- C++ -*----------------------------------*\
| =========                 |                                                 |
| \\      /  F ield         | OpenFOAM: The Open Source CFD Toolbox           |
|  \\    /   O peration     | Version:  v2012                                 |
|   \\  /    A nd           | Website:  www.openfoam.com                      |
|    \\/     M anipulation  |                                                 |
\*---------------------------------------------------------------------------*/
FoamFile
{
    version     2.0;
    format      ascii;
    class       volVectorField;
    location    "3.3";
    object      U.air;
}
// * * * * * * * * * * * * * * * * * * * * * * * * * * * * * * * * * * * * * //

dimensions      [0 1 -1 0 0 0 0];


internalField   nonuniform List<vector> 
4480
(
(0.0773288130151 -0.00235618936081 -0.00745458928555)
(0.156752660129 -6.91146741149e-05 0.00855903164521)
(0.0528532894472 0.000856868329782 0.0106123670906)
(0.0194050108714 0.00590054790813 0.0097326018073)
(-0.0108614142824 0.0127664765268 0.00470944161206)
(-0.167818739032 0.0197179869921 0.039958831244)
(0.0162209832194 0.0640732459018 -0.0443624130709)
(0.00568422762516 0.0593382761607 0.0379737772004)
(-0.0960049087051 0.0157053986923 -0.0331007187038)
(-0.0538661548262 0.048369477909 0.0512331119926)
(-0.0772169968804 0.0627776364769 -0.0392945488325)
(-0.00980862004489 0.024505320116 -0.00496595865282)
(-0.00321098059874 0.0335982332225 -0.00158108721536)
(-0.00711809781003 0.00503305917565 0.00364660526354)
(0.00354380349392 0.023987032609 -0.0105117015236)
(0.010079597116 0.00290350653562 0.008902451648)
(-0.000497476968712 0.00447807420135 -0.00397377657903)
(-0.0171156482944 4.87386690633e-05 0.00840359820133)
(0.00685096903299 -0.000639019729505 -0.0200467263374)
(0.0498334211703 -0.000222918439012 -0.00405745167236)
(0.0848275921712 -0.000629224612061 -0.00826796656708)
(0.0482119103135 -0.00110453849668 0.0359554059919)
(0.0502349340925 0.00122521273672 0.162167954764)
(-0.0215699379385 0.000761320382655 0.0634667310107)
(-0.299733805563 0.000758344695804 0.0246443445485)
(-0.254904433125 0.00135880031211 -0.000236710393414)
(-0.307938753209 0.00217681766292 0.0155163572852)
(-0.347743791379 0.0016315277514 -0.0134114263503)
(0.0345529789836 0.00168832719312 -0.182479653066)
(0.530440702804 0.00212886752962 0.00969496157984)
(0.222468809466 -0.00224972869804 0.0385887803352)
(0.0989444655516 0.000294514642281 0.0136854128984)
(0.236431828606 0.00705674672072 -0.0342712046895)
(0.0595606921637 -0.000163641558808 0.00924715994276)
(0.0787398547556 0.00168546584201 0.0576494729338)
(0.0047625386423 -0.00355705332639 0.0181724362265)
(-0.042043076246 -4.24751639447e-05 0.0348530074852)
(-0.131150777903 -0.0103256866208 0.0562596316658)
(-0.0134073132339 -0.0163833972092 0.18804404703)
(0.101461702904 -0.00612777129214 0.245979980332)
(0.0344667972178 0.0165743427984 -0.135720855926)
(0.0607048304148 -0.00339268163803 0.069961920169)
(0.0482044056403 -0.0379573737861 -0.0317127159182)
(0.0459198086268 0.00566733977981 -0.0126560504073)
(0.0122851558447 -0.0126133111784 -0.00291161415966)
(0.0162209150484 0.0011321906336 0.00484618209447)
(0.00599264012042 -0.00774041076486 -0.0133156473724)
(-0.0128561504466 0.000875949823166 0.0210041234015)
(-0.00840813216761 -0.0029961785765 -0.0090329078185)
(-0.0471468840056 -1.29025905668e-05 -0.00267359773119)
(-0.00337095886559 0.000338472382861 -0.0285569358511)
(0.074761841414 -0.000496217741429 -0.0144509393128)
(0.108371512324 -0.0009311504323 -0.0203698275821)
(0.0946766689024 0.000858365814121 0.0379519572129)
(0.10396855494 -0.00020877319915 0.131991743561)
(-0.0513814981942 0.00202679348672 0.152459577037)
(-0.16033816737 0.000332022615 0.043128576185)
(-0.45531681353 0.00051960967056 0.0355336733006)
(-0.302883585707 0.00229520067947 0.0447649770846)
(-0.7219628306 0.000545777344712 -0.03559756234)
(0.0617988044645 0.00149730981474 -0.456249108146)
(0.750973456627 0.00205795173117 -0.00556626860317)
(0.594288719931 -0.00111236196833 0.203838550123)
(0.121895722525 0.00130103893268 0.0352358560559)
(0.19883433148 0.00118706925972 0.106989566937)
(0.368928965885 0.000253436662717 0.073210987223)
(0.0627191901418 0.00054622549842 0.0798954337883)
(0.0511615520468 0.00295003172661 0.044640934471)
(-0.00938828634646 0.00318406946803 0.0292715114939)
(-0.125870498849 0.00764627787569 0.208157469432)
(0.00370047914067 0.0176809608425 0.157374879594)
(0.0639325512798 0.0175563656361 0.246219833613)
(0.0570597819678 0.0177796427867 -0.113038389324)
(0.0198712045444 0.0363213396987 0.105890143381)
(0.0204471528694 0.0299596136982 -0.0446722826462)
(0.033745753564 0.0188191643251 0.0447939659059)
(0.0122825370987 0.00646362948401 0.00355890097277)
(0.00793730887655 0.00953760192627 0.00410070259339)
(0.0052803133448 0.00726291302408 -0.00789842628906)
(-0.00457376510261 0.00323421123442 0.0119924249844)
(-0.0111960760935 0.00183402461978 -0.012015615287)
(-0.0712699517489 -0.00134510405325 -0.025116540344)
(0.00546493726525 -0.000650809163133 -0.0529606235713)
(0.0683340398877 -0.00110285823445 -0.014338866413)
(0.066580811836 0.000574325106574 -0.016732231205)
(0.0868952075528 -0.00058770029772 0.0269543696973)
(0.16167355578 0.000333329426209 -0.0244397765205)
(-0.0626429255703 -0.000341912301807 0.0248763840581)
(-0.325650541254 -2.87988935678e-05 0.0743157419301)
(-0.189395993104 0.000923899228298 0.0594986273686)
(-0.289569374448 0.00143430754821 0.0852609181507)
(-0.871293646431 0.00174624398609 0.213508985868)
(0.722696479331 0.00105220471096 0.260777293292)
(0.841993269691 0.00411712308548 0.196455044506)
(0.938002541274 0.00172542031194 0.220298897706)
(0.125365343804 0.00101092956114 0.0849410894133)
(0.150413313961 -0.000460133958326 0.173436092726)
(0.260408097213 -0.00288877789165 0.0870946326619)
(0.0702537360523 0.0002638729467 0.0857919378599)
(0.02574664185 0.00173654393755 0.0278557754694)
(-0.00840782576601 -0.00138362785954 0.0929732859655)
(-0.0190176351404 -0.0173449077669 0.0406445260059)
(-0.10936265163 -0.00115715428368 0.313629251628)
(-0.022211823301 0.0035612317824 0.162553426452)
(-0.0202754044392 0.00754597099478 -0.158318509027)
(-0.0303480129552 0.006196503215 0.0820289064333)
(-0.0187366140675 0.00748129087945 0.14557608176)
(0.0566910939516 0.00730293447767 0.0990094821461)
(0.0226801692982 0.00380952569829 0.0155609833589)
(0.00738926622057 0.00211658295747 0.00548374184198)
(-0.0192094424356 0.000219504750431 0.00660855577392)
(-0.0692714447889 0.00119629853712 0.0404864157328)
(-0.0321450338809 -0.00132485526357 -0.0159555752073)
(-0.0558174971789 -0.000643841213157 0.00421396628697)
(-0.00198948563606 -0.00154646303242 -0.09210984825)
(0.0725383842608 -0.00149720385908 -0.00579645294861)
(0.0541502564898 -0.000615277361514 -0.0229443311206)
(0.0584948838088 0.000597782529003 0.00507720467012)
(0.119995545982 -0.000379118419004 -0.0464030403084)
(-0.0920294688745 0.00234283175146 -0.252445234335)
(-0.195042003901 0.000501744722575 -0.0400691111463)
(-0.206940844514 0.00101244607942 0.0679573977111)
(-0.274318334757 0.00133052129152 0.153557451792)
(-1.09692398232 0.00371647270003 0.733805554302)
(0.106891231745 0.000633371585971 0.91586634803)
(0.789757534854 0.00349667449551 0.66779275614)
(0.231862350262 0.00178088044819 0.0674640289715)
(0.139529017077 0.000316519055506 0.0892445175523)
(0.0997775019387 -0.00265189340264 0.322421485747)
(0.19246465741 -0.0155432300015 0.0718130052657)
(0.16745912696 -0.00572855190031 0.116291657589)
(0.0259361948123 -0.00372888278288 0.0260083415493)
(0.00508729585397 0.000194683762308 0.0408921091941)
(-0.107881614787 -0.0135207768239 0.195952902703)
(-0.295620710453 -0.0136113419886 0.164741841147)
(-0.0444651663709 -0.00373016512355 0.174763435961)
(-0.0104729733858 0.000692288124077 -0.190537815412)
(0.149476757522 0.00406427839142 0.103715893996)
(0.0160163225405 0.0083119282138 0.124744201525)
(-0.0297376340627 0.00726055953084 0.085601147411)
(-0.00578770604603 0.00560786341404 0.0180432248467)
(-0.00429188743536 0.00467259982938 0.00359143907036)
(-0.0034317148377 0.00214182491825 0.0153414551615)
(-0.0216393401451 4.83871209388e-06 0.0292682800394)
(-0.0408070836783 0.000920053699642 -0.0242114592345)
(-0.140725928694 -0.00095981547513 0.0795988068979)
(0.00101592651741 -0.0017657338937 0.0945233278337)
(0.0861209308975 -0.000938170759968 0.00901648740252)
(0.0194454278628 -0.00113950510729 -0.014646366219)
(0.175078776903 -7.00763819121e-05 -0.0644561925648)
(0.0343829996228 0.0010233994839 -0.0271280761835)
(-0.0476397481074 0.00246421969651 -0.141142218202)
(-0.144780327878 -0.0022264196631 -0.0475990926701)
(-0.429911871052 0.00174028048833 0.150363646018)
(-0.248852643269 0.000351483170383 0.18217810408)
(-0.435705010089 0.00415727010181 0.746220400986)
(0.0622337447333 0.00339518737237 0.835117511938)
(0.417700596516 0.00435820440082 0.791892915767)
(0.387451979707 0.00116927416869 0.193380070693)
(0.250589267749 -0.000319557610357 0.302440775067)
(0.0808617525373 0.00162559205493 0.262246048142)
(0.445284447484 -0.00439122945407 -0.11847346954)
(0.488382797354 -0.00386993373921 0.257907094633)
(0.0941181191684 9.05646822242e-05 0.078276358009)
(-0.0305305344558 -0.00680752800456 0.0955762491375)
(-0.195879075751 -0.0220185415396 0.28260493302)
(-0.0933592020051 -0.0326338273231 0.0736777265979)
(-0.012124097625 -0.0145795121761 0.301278416832)
(-4.29737674051e-06 -0.0149241706368 -0.198440991258)
(0.0337410336217 -0.00527951708901 0.00626468936217)
(0.00086472151393 0.00478568300878 0.0381157998633)
(-0.0318292084002 0.00258708797293 0.0690750818386)
(0.0123141010993 0.00427159743719 0.0362273249587)
(-0.00057651171465 -0.00044845712634 0.00194345907136)
(0.0178401221441 0.000664968669125 0.0139061199437)
(0.0282747008902 -0.000383740784229 0.0462053701989)
(0.0115525277908 0.000115511635894 -0.0164511816229)
(-0.0204581022989 -0.00131831107714 0.0619967642482)
(0.0154480140452 -0.00198209087139 0.193949009346)
(0.110679701605 -0.00109180905889 0.0571608021122)
(0.0867601734504 -0.00120520602834 -0.0350935331605)
(0.0523644107721 0.000447579562968 -0.0465783830307)
(0.0371373532447 0.000209302748647 -0.030075467721)
(0.00687996644527 0.00149637200491 -0.0815972081874)
(-0.166067908506 0.00186703021429 0.0159522327091)
(-0.163662051369 0.00194987329568 0.133069887785)
(-0.392173757088 0.00222955840202 0.296627133638)
(-0.101766340165 0.00289640805249 0.429824366978)
(0.0793625056794 0.00658487717169 0.591889516539)
(0.187461910383 0.00558120651325 0.393165662536)
(0.165622321369 0.00351547595824 0.13533843877)
(0.138400810325 0.00163131421722 0.123183030227)
(0.248183322956 0.00106105143383 0.204236542007)
(0.0717138411147 -0.00894082187123 -0.053799050073)
(0.220712733232 0.00410153218328 0.13949832405)
(0.236914998566 0.00369815442845 0.146063882268)
(-0.122962022415 -0.0226709225273 0.16215622022)
(-0.324289235229 -0.0223156638479 0.33316580497)
(-0.0983746489469 -0.0365181309513 0.100537730194)
(-0.125208559831 -0.0102785254041 0.0995366367705)
(0.0872419611851 -0.0112670777233 -0.139607606602)
(0.0623948024325 -0.000884651732398 -0.0726695142129)
(0.00818207418501 -0.00320825744932 0.0889699847026)
(-0.0466998444195 0.00154992751009 0.0343984145885)
(-0.00451401907123 0.00143803182891 0.0147008678129)
(-0.0231974565921 0.00398707220811 0.0217185325868)
(-0.00316008093943 -0.00167118123069 0.137101811345)
(-0.00781554979521 -0.00224201250876 0.0649592647336)
(-0.0264318955557 -0.00253699674734 -0.0154117854648)
(0.0138483760339 -0.00343710489523 0.158857468195)
(0.0263452289157 -0.00241907730357 0.158364747697)
(0.0362131798846 -0.00149621894844 0.103342174884)
(0.0322025563075 -0.00185831451615 -0.0261108441066)
(0.0200030280818 0.00139208088035 -0.0471639061319)
(0.0152671033053 -4.2316065576e-05 -0.0641709714821)
(-0.0322540248907 0.000300970035451 -0.0593148380649)
(-0.0987399826351 4.52359371785e-05 0.0325809416542)
(-0.134223276423 -0.00112429882578 0.198271350864)
(-0.193977813757 0.00506108469388 0.244940427603)
(-0.107482557694 0.00192676109467 0.76077884543)
(0.0970387614629 0.00625809722189 0.663333473144)
(0.61238986927 0.01018816884 0.90484184083)
(0.165910774045 0.00447354680131 0.182060985018)
(0.403362907827 0.00632078930121 0.307481960231)
(0.237563472277 0.0113405248156 0.0415664952974)
(0.0938500353113 -0.00702459458565 -0.0238453047292)
(0.162183227059 -0.000428135975763 0.166609852529)
(0.296846413715 -0.00833098591494 0.151773666768)
(-0.078941171367 -0.0277693003116 0.242765816828)
(-0.00183217323339 -0.0323954888961 0.242994186544)
(-0.0324509413648 -0.0295556925135 0.0937836988586)
(-0.116348756521 -0.00197462946652 0.217664076099)
(-0.0745869183691 0.0108139796753 -0.039330978478)
(0.315277767118 0.00645442512555 -0.389324240018)
(0.0295868438299 -0.000329756789957 -0.0391228451737)
(-0.131734673962 0.000908938970414 0.0266724846703)
(-0.02842984055 0.000259163127034 0.0102530682458)
(-0.0292627205865 -0.00304317328034 0.0281488120856)
(-0.0182282011004 -0.00104152284942 0.212808444117)
(-0.0394659387503 -0.0042177832175 0.104729923968)
(-0.130299712789 -0.00261144240571 0.0809998160864)
(-0.0163144871902 -0.00396672436603 0.0597789133134)
(-0.0769346508651 -0.00291212273349 0.285810591961)
(-0.0321504666008 -0.00202426372316 0.0832660069582)
(-0.0464442338763 -0.00189800416424 0.0154873439371)
(-0.0181875380312 0.000350580191145 -0.0392763165049)
(0.0289256694897 0.000552315252431 -0.0805478749152)
(0.0487887893566 0.00271529879729 0.0164517454074)
(-0.013838043784 0.0031504824846 0.0253002405667)
(-0.0857607314664 0.00188353905034 0.217496040841)
(-0.129619312491 0.00377678524869 0.215882677731)
(-0.0313740417268 0.00282289076359 0.259357287554)
(0.0357021254203 0.0111409190184 0.546932453855)
(0.101670152385 0.0147981841807 0.296558993935)
(0.28760424907 0.0119566285807 0.311705384163)
(0.151034998745 0.0091962266329 0.0951143777325)
(0.263357389815 0.00667938441769 0.091366114155)
(0.0683427057655 -0.00355815410098 -0.0214601619612)
(0.081983692953 -0.00911074799198 0.12758104151)
(0.276857255472 -0.00979571382484 0.254117710051)
(0.111161177156 -0.0318412681256 0.327389446628)
(-0.0448004117771 -0.0322759308932 0.195358134636)
(-0.0750329147126 -0.0145890270895 0.0859118604842)
(-0.00502405456883 0.00480218761043 0.0574431376047)
(0.00344412856581 0.0202731100097 0.0522786091102)
(0.206889892358 0.00692283484406 0.151543445202)
(0.00525187481135 -0.00147904659813 -0.455272178859)
(-0.0591153655522 -0.000793365840762 -0.00314342679426)
(-0.0153184158874 -0.00131565375863 -0.00779154824165)
(-0.0142872263315 -0.00586336467804 0.0378348266975)
(0.0073939848441 -0.00382110631146 0.213296623836)
(0.00561028091025 -0.00534963968408 0.133667370618)
(-0.0101621215702 -0.00760927026061 0.0962241982597)
(0.0167695528695 -0.00651107377035 0.117084952041)
(0.0184948091105 -0.00519541696939 0.0909964725212)
(-0.0131973528784 -0.00283852794228 0.116132043087)
(-0.0503089971402 -0.00189930011398 0.0642848971976)
(-0.0217327309282 9.12689332118e-06 -0.0203189738957)
(0.087011112919 0.00150484934392 0.0760419879967)
(0.0586075078004 0.00181415154002 0.0340300480468)
(0.040453727646 0.00187392706701 0.0576079663698)
(-0.0584716366456 0.00314740063645 0.222975916452)
(-0.17679550427 0.00120574525958 0.30180281457)
(-0.0217284660507 0.00557637277735 0.622521873108)
(0.200126643782 0.00644367087356 0.513189356079)
(0.147971257751 0.00803399741039 0.583753975935)
(0.213049388137 0.0127009481831 0.288263382164)
(0.167079075052 0.0110882938145 0.187694510692)
(0.108573497536 0.0111610615062 0.152604172516)
(0.0126159925367 -0.0042507641294 0.0242357026269)
(-0.0337222152787 -0.0143803062282 0.203776372835)
(-0.017563440675 -0.0114807666014 0.0821262841821)
(0.0828332684206 -0.0325128683256 0.469112465816)
(0.214833243528 -0.0209373010358 0.322027286707)
(-0.00177869230806 -0.00567682743961 0.108987290913)
(-0.0178451835837 0.0145396820733 0.254888733921)
(-0.00581191205793 0.0253305452677 -0.101051110072)
(-0.00557401570446 0.013072645249 0.0606345756284)
(-0.0390802634241 0.0039310980136 -0.313985788596)
(-0.0880614663008 -0.00292366022304 0.186774184429)
(-0.00982479778913 -0.00295791139071 -0.0143193337935)
(-0.0339417868388 -0.00756455759939 0.0488738125078)
(-0.0178959947349 -0.0110360273598 0.162100426081)
(-0.0541599394651 -0.00904369039639 0.204828183972)
(-0.0615134567218 -0.00584221815863 0.144618140747)
(-0.0400677031815 -0.0105148917421 0.0803794226528)
(-0.032540135539 -0.00136531563402 0.29224737404)
(-0.0288737616664 -0.00215705273977 0.134340282817)
(-0.0811221792518 -0.00131973518619 0.115524498023)
(-0.129829656874 0.000645812238319 -0.201799957941)
(0.0547930240077 0.00197521122111 0.0752823981211)
(0.0857039389497 0.0057528731729 -0.236974975133)
(0.0444870838051 0.0043932439814 0.059368992639)
(-0.056517933006 0.00421458892727 0.449894061595)
(-0.0786058626883 0.00194384250666 0.27867670411)
(0.00048079053757 0.00394248105788 0.342874797085)
(0.174101206983 0.00587037028002 0.536734558126)
(0.0923398772042 0.00894867967706 0.392810014631)
(0.154617675198 0.0121825833927 0.747951979797)
(0.331469084054 0.0137754754249 0.361550651499)
(0.0265578614609 0.0101648637291 0.121391561721)
(0.0115610482479 -0.00664190993828 0.17233128249)
(0.02892169968 -0.0115093067255 0.0789030214946)
(-0.0953733189967 -0.0152960423494 0.315834341316)
(0.0338125427098 -0.0228667464332 0.234389457657)
(0.0615580231486 -0.0115895684644 0.201218356033)
(0.0286679446311 0.00559692972739 0.000856152598282)
(-0.0338023065167 0.0149742637838 0.195331859497)
(-0.0397124142811 0.0208888668505 -0.0278307983383)
(-0.0438543948987 0.0025998401844 -0.00187963354057)
(-0.0496096338975 -0.0131807256105 -0.227156332451)
(-0.238661447612 -0.0157391456302 0.406226175189)
(-0.0288135254988 -0.014871519838 0.032490602713)
(-0.00364823356423 -0.0139673283285 0.12877991421)
(-0.00410116068459 -0.00848210720358 0.13195817999)
(-0.00228858125274 -0.0124237748221 0.0987172429235)
(-0.0376155055543 -0.0137405132914 0.166553147222)
(-0.0370780529043 -0.00727635098155 0.0699316379165)
(0.00833712491069 -0.00628799555426 0.126228596966)
(0.0140144950483 -0.00254228441351 0.118421672324)
(-0.186452091321 0.000917109641063 0.348472707651)
(-0.109098149973 0.00287777254143 -0.460712638369)
(0.0256693437262 0.00327517625564 -0.0103864246463)
(0.0755822859649 0.000638548726968 -0.242284713444)
(0.126188974631 0.00497119749867 0.0960964677597)
(0.0145407126047 0.00040687455666 0.258867210736)
(0.0175479510538 -0.000674971863849 0.301306902084)
(0.0271313478454 0.00438842714742 0.382088266323)
(0.0494381111007 0.0013810022241 0.308092683257)
(0.20616095221 0.00324742841468 0.54669006388)
(0.109207962737 0.00908217979407 1.11001483166)
(0.0180041709485 0.0130765808135 0.161701421622)
(0.174831894707 -0.0016676716975 0.442315827895)
(0.0164761605141 -0.0101000014614 0.113337944449)
(-0.0802789678054 -0.0181645582302 0.0633103005792)
(-0.0387997176574 -0.0156645887863 0.0635524896302)
(0.111307874851 -0.0190812663831 0.459885463431)
(0.0618601797101 -0.0105328440697 0.190774142429)
(0.0213833699337 -0.000635012354519 0.0304769351896)
(-0.0483084809551 0.0204573474485 0.0499778238459)
(-0.0775099447691 0.00720474322793 -0.0899701246515)
(-0.0591982244089 -0.00712997592344 -0.0442685721116)
(-0.0341998295643 -0.0193600349639 -0.208706629947)
(-0.226146807208 -0.0299053183973 0.0634557600781)
(-0.0104363816446 -0.0306698496305 0.386175996657)
(-0.104930210568 -0.0200437039065 0.398868640955)
(-0.0658938742097 -0.0152886538568 0.233449845029)
(0.0259793454202 -0.00670009215186 0.158719677188)
(-0.0269345669927 -0.00954259420996 0.0718848837239)
(-0.0808835434375 -0.00550315571061 0.142994691497)
(0.0283435178217 -0.003150645832 0.245058955193)
(0.0428355038789 -0.000956785770864 0.142636639466)
(-0.251696604485 0.0014155771084 0.497433970667)
(-0.0683615897421 0.00159426103756 -0.460884088982)
(0.112521188425 0.00305871915952 0.0652071406743)
(0.446680043875 0.00683393352611 -0.065039813589)
(0.164868126074 0.00156920563889 0.192586474659)
(0.0363984526247 -0.0012964641615 0.235043723154)
(0.0490145122417 -0.00304951515458 0.17775504573)
(0.0585736561756 -0.00301845061566 0.387062627134)
(0.0595717224753 -0.00520377819314 0.334777978404)
(0.131152995959 -0.00242470383048 0.360253941547)
(0.0761245520989 -0.00132944279546 0.628641690434)
(0.00381978244203 0.0100115670636 0.499153525266)
(0.0111443563301 0.000680541960646 0.538320425712)
(-0.0438242479238 -0.0056948086084 0.0644160655067)
(-0.150607228685 -0.011289814934 0.136410928179)
(-0.0767338023738 -0.0197521181853 0.232074927319)
(0.0399941892732 -0.015157604994 0.300869754352)
(0.139029999623 -0.0136571010458 0.33106787054)
(0.0106403007774 0.00560697172953 0.041838417552)
(-0.0295925256691 0.0131266942767 0.0442957806768)
(-0.0665540947989 -0.00533772175956 -0.0267993723147)
(-0.107466808737 -0.0206138570261 -0.0311107397146)
(-0.0624168560344 -0.0323695833742 0.0714796727848)
(-0.109315872007 -0.0336747297306 0.106077115169)
(-0.0143518435695 -0.0338525668753 0.162141019186)
(0.044490122024 -0.0214200115809 0.410446105015)
(-0.10977234887 -0.0132687660167 0.436350801478)
(-0.0334413437471 -0.00357377743032 0.0199945054861)
(-0.0297124373403 -0.0106330200763 0.155734477991)
(-0.0365988585948 -0.00698912853671 0.0664599801448)
(-0.0120814454959 -0.00333091086428 0.16250964574)
(0.116572995026 -0.000715656153316 0.13192622489)
(-0.283946821878 0.000206173994537 0.0874161200646)
(-0.314505139198 0.00309149361302 0.00429285196404)
(0.351673607576 0.00398750991973 0.16315215561)
(0.214486907002 -0.000327824423323 0.244913893639)
(0.285061158474 0.00147924841524 0.423512176003)
(0.0245919272951 -0.00487325853199 -0.165546950189)
(0.0640412574318 0.00327973491475 0.551272064615)
(0.0650420956993 0.00388999953876 0.296664576541)
(0.233809865865 -0.000563356544594 0.414376289201)
(0.361181875535 -0.0117920938889 0.290427949021)
(0.0788592661247 -0.00364805448411 0.173781582485)
(-0.0330087777452 -0.000240415325633 0.757931970539)
(0.00876995047046 0.00287642249971 0.24291962785)
(-0.0145207408846 0.00562011136629 0.158934666171)
(-0.0358662332121 -0.0110705240141 0.0485871348405)
(0.0215139507581 -0.0294882411734 0.132115598222)
(0.104494512973 -0.0232490939777 0.422228829356)
(0.16096005982 -0.0182156530647 0.228507954612)
(0.097269473518 0.0014285786541 0.0986177325559)
(-0.0310616474551 0.0101063286625 0.103878269153)
(-0.107104933673 -0.0114148622312 -0.078144436413)
(-0.0308160958138 -0.0192748982066 0.0392784716195)
(-0.0926758218839 -0.03056026882 0.44045929345)
(-0.229120780294 -0.0364439518276 0.132781916056)
(-0.0751598425611 -0.0276041294534 -0.0795706158372)
(-0.0218544411965 -0.0175344113429 0.451058122303)
(-0.246778618264 -0.00547327127087 0.0808033296002)
(-0.0245837571589 -0.000787960588083 0.0249217087649)
(-0.00793224654649 -0.00209421889547 0.1672664863)
(-0.0578378463931 0.000774065967137 0.0627717030278)
(0.00195482906888 -0.0033433660837 0.138087009767)
(0.0409685028448 -0.000861236806754 0.0818952129824)
(-0.145690610911 0.00270465252356 -0.156617163958)
(-0.225236858343 0.00251286604001 0.808183587419)
(0.451828495123 0.0052089158337 0.505730737587)
(0.221390476299 0.00623247782228 0.2772218262)
(0.0542279743845 0.00571379445936 0.409513131996)
(0.00117687349727 0.00462492208354 -0.115204144456)
(0.159398660582 -0.00482733523813 0.293503804584)
(0.352967165347 -0.00170256790563 0.253780420105)
(0.109916633051 -0.00260553149356 0.141144508471)
(0.323739599625 -0.0172640694986 0.181458669135)
(0.175003008403 -0.0172134478185 0.0396497720806)
(0.101526765019 -0.00601056623001 0.329514840824)
(0.186228604717 -0.0126985016366 0.440060702297)
(-0.0481392985402 0.00787269321711 0.157991418888)
(-0.198999257931 -0.00894633131381 0.074071371241)
(-0.00205477084595 -0.0339101580155 0.145072748244)
(0.0279414745778 -0.0269591407595 0.235067693116)
(0.0666825334618 -0.0265629882335 0.366284368774)
(0.137112327963 -0.00338593140418 0.0806485170192)
(-0.00725297595237 0.000403539576344 0.0518687560838)
(-0.0121540823603 -0.0165376553451 -0.0138120501672)
(0.0314179432593 -0.0206828783706 0.0832581936019)
(-0.0882956107073 -0.0305322380797 0.226420477263)
(-0.367085423512 -0.0321319024847 0.146255584035)
(0.0290193115175 -0.0286493177386 0.155575679759)
(0.0550212855553 -0.0147400615021 0.168682514809)
(-0.243951841472 -0.0104716144257 0.124573690104)
(-0.125735337389 -9.7057512961e-05 0.111244191269)
(-0.0484064432284 0.00376660083757 0.201246560324)
(-0.0393376240455 0.00088034464713 0.0173305362136)
(-0.0507009926151 0.00298140531758 0.161601655982)
(-0.00864836691601 0.00136077094293 0.117580775273)
(-0.13732676662 0.00235202234986 -0.0463825425773)
(-0.154794045176 0.00441136190949 0.539348140813)
(0.12719810394 0.00837224125908 0.374541357563)
(0.43752225251 0.0101584790175 0.478801003844)
(0.0299613991574 0.00274496090537 0.0169478863739)
(-0.0978524961664 0.0122453743141 0.127364932213)
(0.456849900361 0.0130056257648 0.222718892243)
(0.255018476933 0.00724782452511 0.194090560264)
(0.240280925914 0.0046495844636 0.203223220808)
(0.209872158039 -0.0135243812551 0.103892692682)
(0.299799257402 -0.0212165843589 0.474083260978)
(0.209055528137 -0.0201783536606 0.188547312351)
(0.173079836821 -0.0242291103947 0.280810951213)
(-0.0515005016104 0.00115329781532 0.261325548699)
(-0.00654777940968 -0.00425812476516 -0.00418849448687)
(0.0359218437324 -0.0263031286547 0.22411634746)
(0.00896073148725 -0.0297434380073 0.388187314832)
(0.0194193855203 -0.0340318917127 0.175548687532)
(0.123439962858 -0.00335800261978 0.193933856097)
(0.0460368125702 0.000123772260071 0.0697698176776)
(0.00601182051449 -0.0197341549918 -0.00662478056104)
(0.03312620087 -0.0156428303169 0.0223668604097)
(-0.0836784461487 -0.0241952568418 -0.0880553192863)
(-0.313173716249 -0.0193787255758 0.182769013844)
(0.0731714778062 -0.0152155562234 0.397994030508)
(0.0623195517161 -0.0181372078781 -0.145406879981)
(-0.434414882402 -0.00953165461648 -0.078357059949)
(-0.19540509078 -0.000553642420727 -0.0597620404924)
(-0.0440210788741 0.0071140665877 0.0876360719614)
(-0.0678672548537 0.00267792740684 0.0403393372009)
(-0.00500907020167 0.00426741010619 0.114249309241)
(0.00256999778694 0.00123483326602 0.0648437867337)
(-0.0468606798013 0.000744849725615 0.00989192001261)
(-0.0320437734073 0.00193460432203 0.582805536347)
(0.131091459191 0.00645897287425 0.630336069945)
(0.102898992143 0.0177360696723 0.176928731048)
(0.0491101071316 0.0132825337531 -0.472306556858)
(0.161399760607 0.0223156748729 1.15796170451)
(0.374146914298 0.0125236646879 0.257252887028)
(0.392100381501 0.0110503391071 0.21154797683)
(0.115307739082 0.00746877838475 0.139901581206)
(0.300180211986 -0.00850514601618 0.0425882928272)
(0.207317973327 -0.0224946134541 0.28920123927)
(0.389469166989 -0.0304766446982 0.243389938637)
(0.351014128595 -0.038636752548 0.421659971363)
(-0.170849685305 -0.0151899994458 0.204269212153)
(-0.00741164888405 0.010132283047 0.133961897233)
(0.0757564493109 -0.0149560933197 0.160465745416)
(0.114950442624 -0.0282948674943 0.377553786861)
(0.0760334883625 -0.0383534064208 0.298028010815)
(0.00153541537387 -0.00485719334355 0.0645105199344)
(0.12423910361 -0.000989719697522 0.117049689488)
(0.0413448641464 -0.0227111014923 0.00117052821518)
(0.0199465123357 -0.0195891373881 0.0290115529084)
(-0.15402139482 -0.0188035588306 -0.107401164262)
(-0.245584043508 -0.0123471764077 0.136859122249)
(-0.0209209707518 -0.0135889173021 0.439268949619)
(-0.0257307624841 -0.0167772452322 -0.0981089944544)
(-0.271836759067 -0.0102430990154 -0.0621482827268)
(-0.127111985094 -0.00215524833481 0.0166347830467)
(-0.0321903521194 0.00578829931678 0.0496698493611)
(-0.0864750935639 0.00325040986225 0.00868267352593)
(-0.0348953848716 0.0019958056207 0.207340891171)
(-0.0762600051886 -0.000396268147305 0.0712953286499)
(-0.0281247955185 0.000408299618928 0.124461610093)
(0.0190763361607 0.00430835459459 0.346787214384)
(0.0494115935366 0.00354740635861 0.398325017104)
(0.198239622107 0.0116092991679 0.290592693364)
(0.0837371652796 0.010622589874 0.433022184594)
(0.00789814515323 0.0153725153976 0.594363362189)
(0.331608751068 0.010624189041 0.322341016304)
(0.3491238656 0.0112862116408 0.254320373239)
(0.157428418841 0.0128398159116 0.218952752846)
(0.255200384758 0.00934571041398 -0.0286578592673)
(0.206312988655 -0.0172310756683 0.203399024331)
(0.321799000869 -0.0282519696504 0.166769761673)
(0.313851319284 -0.0411707601443 0.260110233224)
(0.129703986297 -0.0297346963557 0.135886597821)
(0.0179594817789 0.00394966876742 0.413395264049)
(0.0550986718299 -0.00859518956721 0.169314991793)
(0.0443534821101 -0.0241646393528 0.164945524849)
(0.139516365086 -0.0307584412026 0.238423794058)
(0.00200854741295 -0.00670456342857 0.119515323782)
(0.0553287154949 -0.00180472374952 0.247911066731)
(0.133407504896 -0.0252965007523 0.095689739219)
(0.0113094992769 -0.0149932177475 0.0140854218643)
(-0.150371882117 -0.00603192887334 -0.00661674285737)
(-0.195956842562 -0.0102687161603 0.266265276809)
(-0.0183776729424 -0.00778951020897 0.361452916806)
(-0.131745481101 -0.0058867810315 0.0104584788669)
(-0.122622569076 -0.0100967665322 -0.0334396004394)
(-0.171719690908 -0.00128601420292 0.0999817026749)
(-0.00393406637835 0.00659099483371 -0.117604731343)
(0.00154867185883 0.00320785538125 0.0308766591157)
(-0.0283858584097 0.00190701894098 0.133919090994)
(-0.0367065863402 -0.0132585035383 0.135339527019)
(-0.0205986666535 -0.0177644596354 0.379563888638)
(-0.0164616958241 -0.0160647865608 0.249558722258)
(0.035894664754 -0.0127161735379 0.410395267521)
(0.254533446392 -0.00968488876672 0.215811639604)
(-0.00123017649394 -0.00869910489622 -0.289309251111)
(-0.0146633320125 -0.00861095088774 0.361165820624)
(0.21702352798 -0.00459550432021 0.265291586847)