/*--------------------------------*- C++ -*----------------------------------*\
| =========                 |                                                 |
| \\      /  F ield         | OpenFOAM: The Open Source CFD Toolbox           |
|  \\    /   O peration     | Version:  v2012                                 |
|   \\  /    A nd           | Website:  www.openfoam.com                      |
|    \\/     M anipulation  |                                                 |
\*---------------------------------------------------------------------------*/
FoamFile
{
    version     2.0;
    format      ascii;
    class       volScalarField;
    location    "50000";
    object      k;
}
// * * * * * * * * * * * * * * * * * * * * * * * * * * * * * * * * * * * * * //

dimensions      [0 2 -2 0 0 0 0];


internalField   nonuniform List<scalar> 
3200
(
0.35144269536
0.351442615989
0.351442692584
0.351442692062
0.351442757814
0.351442747852
0.351442798408
0.351442776856
0.35144279883
0.351442771707
0.351442712073
0.351442823856
0.351442816215
0.351442830562
0.35144285812
0.351442758923
0.351442892253
0.351442909632
0.351442870582
0.35144284476
0.35144284658
0.351442822623
0.351442787495
0.351442784456
0.35144276381
0.351442778896
0.351442719433
0.351442738495
0.351442768953
0.351442790108
0.351442728833
0.351442752614
0.365236613575
0.365236710101
0.365236706838
0.365236666859
0.365236756698
0.365236790626
0.365236760505
0.365236714005
0.365236743536
0.365236647218
0.3652366093
0.365236793338
0.36523661474
0.365236757991
0.365236725205
0.36523666256
0.365236729266
0.36523672561
0.365236690045
0.365236635005
0.365236714631
0.365236549831
0.36523664245
0.365236700961
0.365236659733
0.365236733665
0.365236746441
0.365236708197
0.365236627495
0.365236754477
0.365236705382
0.365236706553
0.357677937604
0.357677987714
0.357677944683
0.357678089426
0.357678043882
0.357678128819
0.357678086064
0.35767808975
0.357678037003
0.357678005715
0.357677941105
0.357678084864
0.357678062641
0.357678069572
0.357677974469
0.357677982427
0.357678036218
0.357677995452
0.357677939124
0.357677903008
0.357677993722
0.357677996359
0.357677950103
0.357677952614
0.357677887643
0.357678049715
0.357678019295
0.357678066203
0.357678060707
0.357678008817
0.35767797797
0.357678040114
0.353658436835
0.353658441826
0.353658374614
0.353658487674
0.353658498394
0.353658480198
0.353658477141
0.35365841449
0.353658476517
0.353658395094
0.353658397044
0.353658449565
0.353658422419
0.35365847628
0.353658446904
0.35365843873
0.353658404144
0.353658340965
0.353658347581
0.353658309383
0.353658372819
0.35365842169
0.353658387162
0.353658367428
0.353658307119
0.353658442986
0.353658370718
0.353658394904
0.353658428974
0.353658436317
0.353658370916
0.353658470642
0.35135688824
0.351356838369
0.351356801123
0.351356915771
0.351356895847
0.351356884095
0.351356957707
0.351356937576
0.351356891173
0.35135690487
0.351356866805
0.35135685512
0.351356870674
0.351356852482
0.351356863921
0.351356874349
0.351356876546
0.351356866852
0.351356807696
0.351356836806
0.351356828152
0.351356846486
0.351356775182
0.351356838763
0.351356829305
0.351356883522
0.35135672864
0.351356839245
0.351356825073
0.351356864539
0.351356866453
0.351356918309
0.349932940687
0.349932907101
0.349932822193
0.34993287589
0.349932889889
0.34993295913
0.34993296574
0.349932932851
0.349932912274
0.349932810283
0.349932939732
0.349932885992
0.349932909376
0.349932840768
0.349932882396
0.349932897177
0.349932902192
0.349932911657
0.349932861365
0.349932769119
0.349932919834
0.349932876857
0.349932889506
0.349932787794
0.349932839986
0.349932912391
0.349932881864
0.349932851244
0.34993286288
0.349932795045
0.349932929052
0.349932906228
0.34899581605
0.348995784389
0.348995744027
0.34899568866
0.348995823644
0.348995856288
0.348995824933
0.348995804317
0.348995761144
0.348995699942
0.348995778907
0.348995685185
0.348995688858
0.348995630011
0.34899578331
0.348995773785
0.348995795622
0.3489957863
0.348995727723
0.348995718163
0.348995781179
0.348995774297
0.348995671647
0.348995728704
0.348995742801
0.348995761796
0.348995678669
0.34899574429
0.348995775815
0.348995761318
0.348995814283
0.348995781145
0.348348809911
0.348348813843
0.348348779032
0.348348770248
0.348348816348
0.348348794691
0.348348793149
0.34834866743
0.348348758108
0.348348777349
0.348348748213
0.348348734252
0.348348681107
0.348348757933
0.348348771765
0.348348781346
0.348348777618
0.348348675428
0.348348766249
0.348348757938
0.348348814765
0.348348785035
0.348348748815
0.348348787707
0.348348765055
0.348348787344
0.348348733453
0.348348722143
0.348348779873
0.348348774057
0.348348824603
0.348348796918
0.347885103897
0.347885070069
0.347885077302
0.347885087383
0.34788505516
0.347885041452
0.347885068177
0.347885053567
0.347885026332
0.347885068807
0.347885052462
0.347885069216
0.347885034989
0.347885051226
0.347885071055
0.347885068976
0.347885070394
0.347885016983
0.347884945545
0.347885056255
0.347885083149
0.347885046424
0.347885039837
0.347885072835
0.347885053496
0.347885083823
0.347885075278
0.347885031944
0.347885073609
0.347885071098
0.347885105967
0.347885100273
0.347542712847
0.347542777625
0.347542778637
0.347542725174
0.347542771112
0.347542718284
0.347542734193
0.347542747732
0.347542713165
0.347542748974
0.347542735871
0.3475427497
0.347542739963
0.347542646554
0.347542794537
0.347542758837
0.34754275389
0.347542711103
0.347542629836
0.347542726838
0.347542759964
0.347542740942
0.347542725935
0.347542736205
0.347542736458
0.347542747672
0.347542739318
0.347542706003
0.34754276697
0.347542751762
0.347542736765
0.347542740065
0.347284062795
0.347284055133
0.347284082461
0.347284052925
0.34728408776
0.347284033778
0.347284018359
0.34728404955
0.34728402592
0.347284009927
0.347284027585
0.347284059069
0.347284036867
0.347283960275
0.347284100026
0.3472840157
0.347284066274
0.347284049884
0.347284024725
0.347283989476
0.347284062694
0.347283992844
0.347284033147
0.347283946425
0.347284052719
0.347284053644
0.3472839507
0.347284011052
0.347284080225
0.347284015273
0.347284022685
0.347284015718
0.347084919638
0.347084907113
0.347084933284
0.347084940891
0.347084906608
0.347084872129
0.347084869654
0.347084869489
0.347084873327
0.347084891131
0.347084876729
0.347084885848
0.347084815438
0.347084908126
0.347084894992
0.347084876135
0.347084831058
0.347084902412
0.347084830217
0.347084856631
0.347084893507
0.347084865464
0.347084838831
0.347084820739
0.347084884547
0.347084869452
0.347084854509
0.347084817966
0.347084924185
0.34708486625
0.347084877476
0.347084832867
0.346929353642
0.346929328534
0.346929349348
0.346929367831
0.346929344306
0.34692927687
0.346929328628
0.346929268699
0.34692930859
0.346929323343
0.34692931199
0.34692928199
0.346929213724
0.346929325035
0.346929265815
0.346929275708
0.346929278704
0.346929302712
0.346929268123
0.346929283725
0.346929278726
0.346929271712
0.346929215139
0.346929231442
0.34692928814
0.346929277579
0.346929271816
0.346929243033
0.34692934262
0.346929312574
0.346929311719
0.346929257714
0.346806443886
0.346806393708
0.346806412145
0.346806434917
0.346806417116
0.346806300638
0.346806433664
0.346806289079
0.346806384898
0.346806404834
0.346806386903
0.346806389275
0.346806363324
0.346806381527
0.346806367614
0.34680637339
0.346806371451
0.346806373464
0.34680635013
0.346806350829
0.346806254136
0.346806354947
0.346806335659
0.346806336534
0.346806350459
0.346806300491
0.346806304456
0.346806364211
0.346806416786
0.346806385013
0.346806404819
0.346806376923
0.346708518958
0.346708419687
0.346708481439
0.346708499772
0.346708478085
0.34670837465
0.346708516593
0.346708447217
0.346708468835
0.346708458179
0.346708446019
0.346708468547
0.346708392737
0.346708434736
0.346708421813
0.346708442858
0.346708449927
0.346708451337
0.34670844582
0.34670842344
0.346708414454
0.346708407972
0.346708407197
0.346708337173
0.346708445537
0.346708437092
0.346708371231
0.346708473655
0.346708487678
0.346708467016
0.346708423207
0.346708464216
0.346630089995
0.346630048156
0.346630050493
0.346630070063
0.346630043218
0.346629980702
0.346630084012
0.346630035956
0.346630055293
0.346630018138
0.346630017331
0.346630022354
0.34662990875
0.346630031781
0.346630013925
0.346629996788
0.346630021971
0.346630011849
0.346630018148
0.346630014479
0.346630016613
0.346630007791
0.346629935132
0.346629981776
0.346629932352
0.346630027769
0.34663003171
0.34663003613
0.346630035511
0.346629964547
0.346630022925
0.346630040945
0.346567134031
0.346567103461
0.34656708927
0.346567087318
0.346567057616
0.346567095351
0.346567129809
0.346567086583
0.346567102155
0.346567068058
0.346567055452
0.346567059494
0.346567043743
0.346567055604
0.346567046901
0.346567049903
0.346567056041
0.346567051486
0.346567055672
0.346567060937
0.346567068223
0.346567053075
0.346566962306
0.346567061485
0.346567068343
0.346567070189
0.346567073818
0.34656707283
0.346567077216
0.346567059441
0.346567072975
0.346567063894
0.34651663771
0.346516603726
0.346516544498
0.34651650962
0.346516618903
0.346516614491
0.346516636626
0.346516598391
0.346516613061
0.346516573961
0.346516561122
0.346516544414
0.346516564408
0.346516549646
0.346516465692
0.346516568287
0.346516544363
0.34651655301
0.346516568259
0.34651656144
0.346516570223
0.346516529624
0.346516498881
0.346516552979
0.346516586393
0.34651653663
0.346516571194
0.3465165744
0.346516562285
0.34651649607
0.346516591733
0.34651659065
0.346476314182
0.34647629105
0.346476282049
0.346476268226
0.346476291011
0.346476288152
0.346476308898
0.346476292641
0.346476292011
0.346476289198
0.346476242064
0.346476151026
0.346476265498
0.346476244094
0.346476224584
0.346476223631
0.346476242868
0.346476236827
0.346476237529
0.346476248401
0.346476252388
0.346476247439
0.346476238427
0.346476190266
0.346476276936
0.346476172486
0.346476278419
0.346476262146
0.34647624971
0.346476236561
0.346476263846
0.346476248213
0.346444413923
0.346444384565
0.346444395919
0.346444393465
0.346444392075
0.346444377481
0.346444407478
0.346444396723
0.346444396612
0.346444398807
0.346444336429
0.346444303543
0.34644433744
0.346444345189
0.346444349952
0.346444276352
0.346444368697
0.346444354291
0.346444273607
0.346444372272
0.346444366608
0.346444360354
0.346444357485
0.346444355297
0.346444353139
0.34644434558
0.346444363429
0.346444362317
0.346444339083
0.346444274156
0.346444397353
0.346444380593
0.346419550402
0.346419547519
0.346419547832
0.346419561062
0.346419545408
0.346419516127
0.346419556868
0.346419559822
0.346419541968
0.346419545089
0.346419489968
0.346419421821
0.34641951117
0.346419509927
0.346419504511
0.346419503723
0.346419518229
0.346419497472
0.346419485001
0.346419496308
0.346419519162
0.346419518283
0.346419515655
0.346419523729
0.346419450139
0.346419506442
0.346419513489
0.346419523997
0.346419514631
0.346419501822
0.34641953205
0.346419537506
0.34640066579
0.34640068811
0.34640067129
0.346400680804
0.346400671687
0.346400595493
0.34640067696
0.346400687926
0.346400659882
0.346400655449
0.346400583094
0.346400645093
0.34640064655
0.346400646603
0.346400587819
0.346400666637
0.346400649897
0.346400633256
0.346400571953
0.346400651837
0.346400635145
0.346400653435
0.346400639412
0.346400656268
0.346400652222
0.34640057819
0.346400651313
0.346400658495
0.346400639085
0.346400619461
0.346400670121
0.34640065475
0.346386851659
0.346386958306
0.346386865855
0.346386951045
0.346386944342
0.346386907038
0.346386848541
0.346386944612
0.346386920763
0.346386893086
0.346386906312
0.34638689024
0.346386910124
0.346386906132
0.346386902712
0.346386909528
0.346386899489
0.346386885567
0.346386880711
0.346386896883
0.346386879888
0.346386902106
0.346386897038
0.346386901011
0.346386922168
0.346386888697
0.346386824799
0.346386927754
0.34638692022
0.346386917131
0.346386906939
0.346386880434
0.346377576711
0.346377627474
0.346377618649
0.346377605788
0.34637760292
0.346377541726
0.346377598917
0.346377610797
0.346377608648
0.346377600247
0.346377590574
0.346377591275
0.346377603774
0.346377565953
0.346377610275
0.346377598897
0.346377582802
0.346377510978
0.346377576075
0.346377577598
0.346377554902
0.346377598818
0.346377583415
0.346377585235
0.346377606268
0.34637759196
0.34637758533
0.346377612606
0.346377611743
0.346377600774
0.346377602891
0.346377598255
0.346372096349
0.34637216255
0.346372170834
0.34637215512
0.34637215441
0.34637213918
0.34637213579
0.346372156608
0.346372158804
0.346372154765
0.346372139232
0.346372149856
0.346372163096
0.346372145533
0.346372164405
0.346372085178
0.346372157862
0.34637210696
0.346372056824
0.346372123346
0.346372143046
0.346372153198
0.346372135551
0.34637208687
0.346372169173
0.34637216942
0.346372167924
0.346372173303
0.346372154692
0.346372172191
0.346372170174
0.346372147641
0.346370099133
0.346370056008
0.346370138491
0.346370092497
0.346370132941
0.346370111287
0.346370045217
0.346370125313
0.346370120318
0.34637011993
0.346370054243
0.346370129817
0.346370133631
0.346370069367
0.346370114425
0.346370104692
0.34637011443
0.346370084221
0.346370021368
0.346370112094
0.346370077536
0.346370123441
0.346370118815
0.346370108969
0.346370101876
0.346370123985
0.346370123551
0.346370133063
0.346370132852
0.346370135569
0.346370123646
0.346370124991
0.346371096245
0.346371094221
0.346371107729
0.346371096923
0.346371122609
0.346371102456
0.346371094927
0.346371099011
0.346371109127
0.346371095644
0.346371091427
0.346371080235
0.346371127849
0.346371112755
0.346371098411
0.346371120301
0.346371110885
0.346371079868
0.346371028403
0.346371112939
0.346371082366
0.34637110023
0.346371099612
0.346371100081
0.346371095361
0.346371104215
0.346371104412
0.346371106046
0.34637109969
0.346371117938
0.346371067421
0.34637114186
0.346374845268
0.346374821144
0.346374818702
0.346374828488
0.346374831126
0.346374770258
0.346374832412
0.346374818687
0.346374816418
0.346374811722
0.346374809256
0.346374802041
0.346374841238
0.346374835941
0.346374835649
0.346374835675
0.346374805201
0.346374799222
0.346374790667
0.346374805108
0.346374800199
0.346374799671
0.34637480967
0.346374809153
0.346374797272
0.346374807004
0.346374800404
0.346374803541
0.34637480731
0.346374816949
0.346374826627
0.346374846743
0.34638101764
0.346380947815
0.346380990993
0.346380992611
0.346381000868
0.346380987223
0.346380986166
0.346380992546
0.346381002996
0.346381005851
0.346380982796
0.346380945539
0.346381021838
0.346381012209
0.346380972149
0.346381008732
0.346380953596
0.346380987643
0.346380983418
0.346380985187
0.346380958056
0.346380915698
0.346380970174
0.346380977217
0.346380975017
0.346380989205
0.346380973655
0.346380981051
0.346380977244
0.346380987553
0.346381005956
0.346381005466
0.346389412267
0.346389383058
0.346389391143
0.346389413518
0.346389401528
0.34638940449
0.346389408332
0.346389409135
0.34638941014
0.346389414815
0.346389408381
0.346389410238
0.346389420787
0.346389365635
0.34638942663
0.346389425309
0.34638941492
0.34638940558
0.34638939135
0.346389390148
0.346389386983
0.346389361915
0.346389331091
0.34638942144
0.346389428178
0.346389428421
0.34638940806
0.346389405297
0.34638940292
0.346389422519
0.346389426824
0.346389410601
0.346399900066
0.346399876704
0.346399868824
0.346399881725
0.346399892228
0.346399881675
0.346399904996
0.346399883415
0.346399876212
0.346399875393
0.346399893811
0.346399893691
0.34639989701
0.346399884209
0.346399902269
0.346399891001
0.346399873006
0.346399862046
0.346399857219
0.346399872188
0.346399864904
0.346399840117
0.346399807601
0.346399891665
0.346399903648
0.346399900686
0.346399878052
0.346399872662
0.346399837642
0.346399906658
0.346399903044
0.346399867018
0.34641226691
0.346412237649
0.346412229537
0.346412234488
0.346412251725
0.346412258595
0.346412256097
0.346412248107
0.34641220508
0.346412253271
0.346412243705
0.346412239398
0.346412243
0.346412214162
0.346412266602
0.346412208417
0.346412245577
0.346412232723
0.34641222505
0.346412225966
0.346412227925
0.346412217045
0.346412233847
0.346412241397
0.346412237462
0.346412243677
0.346412236079
0.34641224199
0.346412250799
0.346412260476
0.346412262748
0.346412261695
0.346426381742
0.346426331117
0.346426368399
0.346426326202
0.346426376107
0.346426357707
0.346426356276
0.346426350509
0.346426348644
0.346426351523
0.346426324049
0.346426382687
0.346426392382
0.346426391917
0.346426387341
0.346426337751
0.346426318424
0.346426380106
0.346426371588
0.346426330447
0.346426382182
0.346426376075
0.346426361986
0.34642636034
0.346426370562
0.3464263743
0.3464263662
0.346426378096
0.346426379888
0.346426380098
0.346426388666
0.346426387436
0.34644212834
0.34644215454
0.346442154001
0.346442144986
0.346442143246
0.346442121086
0.346442114135
0.346442087443
0.34644213552
0.346442125142
0.346442121123
0.346442137136
0.346442146581
0.346442149036
0.346442149709
0.346442124428
0.34644209283
0.346442157429
0.346442155384
0.346442149316
0.346442167756
0.34644216469
0.346442150862
0.346442148238
0.34644214021
0.346442134819
0.346442119438
0.346442149686
0.346442146826
0.346442146228
0.346442144693
0.346442138819
0.346459462337
0.346459466332
0.346459465744
0.346459462746
0.346459458644
0.346459443666
0.346459439051
0.34645944459
0.346459440031
0.346459437829
0.346459443459
0.346459440598
0.346459446708
0.346459451516
0.34645946525
0.346459457268
0.346459442223
0.346459449243
0.346459451545
0.346459435911
0.346459488765
0.346459487377
0.346459469858
0.346459454178
0.346459449557
0.346459456223
0.346459463399
0.346459456471
0.346459461801
0.346459464957
0.346459483321
0.346459472469
0.346478241745
0.346478231881
0.346478231076
0.346478233344
0.346478202753
0.346478224034
0.346478194541
0.346478232079
0.346478227737
0.34647822751
0.346478228086
0.346478223567
0.346478235435
0.346478223459
0.346478217734
0.346478219226
0.346478219239
0.346478226341
0.346478239114
0.346478255308
0.346478259394
0.346478256084
0.346478236261
0.346478219491
0.346478215229
0.346478202978
0.346478234176
0.346478230804
0.346478237354
0.346478232871
0.346478253259
0.346478251243
0.346498391462
0.346498389566
0.346498389332
0.346498384183
0.346498367268
0.346498362311
0.3464983743
0.346498383695
0.346498375896
0.346498372901
0.346498363573
0.346498349518
0.346498373846
0.346498366574
0.346498373162
0.346498366018
0.346498364712
0.346498364075
0.34649835168
0.346498393321
0.346498402366
0.346498418543
0.346498411768
0.346498396135
0.346498378724
0.346498374251
0.346498390076
0.34649840239
0.346498400312
0.346498393937
0.346498397112
0.346498399084
0.346519858757
0.346519851206
0.346519837908
0.346519830431
0.346519831341
0.346519835117
0.346519834441
0.34651983064
0.346519827366
0.346519838554
0.346519839832
0.346519828149
0.346519821934
0.346519805863
0.346519843945
0.346519836731
0.346519836061
0.346519825703
0.346519843399
0.346519841299
0.346519853367
0.346519851523
0.346519846201
0.346519849089
0.346519844624
0.346519837409
0.346519856158
0.346519882689
0.346519877886
0.346519873111
0.346519870381
0.346519866572
0.34654256841
0.346542569795
0.346542563806
0.346542543627
0.346542552593
0.346542536914
0.346542533257
0.346542540266
0.346542536783
0.346542562796
0.346542548379
0.346542539725
0.346542528254
0.346542524946
0.346542541358
0.346542545436
0.346542546078
0.346542546111
0.346542552354
0.346542561586
0.34654256272
0.346542562604
0.346542559806
0.346542561426
0.346542568222
0.346542556386
0.346542579872
0.346542571689
0.346542593314
0.346542583133
0.346542572303
0.346542569795
0.346566499839
0.346566493111
0.346566484054
0.346566469582
0.346566465438
0.346566463153
0.346566461622
0.346566466142
0.346566469381
0.346566473857
0.34656645832
0.346566450005
0.346566442359
0.346566438558
0.346566447849
0.346566461964
0.346566475343
0.346566469048
0.346566461781
0.346566449591
0.346566446968
0.346566456481
0.346566466578
0.346566479747
0.346566476296
0.346566470665
0.346566478542
0.346566501691
0.346566501402
0.346566501311
0.3465664917
0.34656650845
0.34659154553
0.346591539013
0.346591527973
0.346591524659
0.34659153052
0.346591535086
0.346591545448
0.346591522794
0.346591512799
0.346591526644
0.346591539994
0.346591547927
0.346591533571
0.346591518322
0.346591514208
0.346591521325
0.346591519303
0.346591515701
0.346591527466
0.346591534837
0.346591528679
0.346591531478
0.346591539801
0.346591533185
0.346591526367
0.346591530604
0.346591538982
0.346591552703
0.346591569949
0.346591559339
0.346591555521
0.346591562004
0.346617708274
0.346617713885
0.346617719251
0.346617714767
0.346617704412
0.346617696898
0.346617690046
0.346617678262
0.346617677285
0.346617690715
0.346617710588
0.346617715511
0.34661769886
0.346617690057
0.34661768882
0.346617694336
0.346617688098
0.346617683301
0.346617701058
0.346617704428
0.346617690507
0.346617682528
0.346617682572
0.34661768782
0.346617675333
0.346617672599
0.346617692713
0.346617717966
0.346617728226
0.346617712276
0.346617706129
0.34661770536
0.346644924274
0.346644932883
0.346644935848
0.346644936363
0.346644925219
0.346644911787
0.346644896675
0.34664489246
0.346644907301
0.346644909943
0.34664490233
0.34664489325
0.346644887089
0.346644890637
0.34664490413
0.34664490616
0.346644896856
0.346644894072
0.346644891978
0.346644901952
0.346644896907
0.346644889979
0.346644905539
0.346644907329
0.346644884718
0.346644881393
0.346644897607
0.346644909985
0.346644909657
0.346644909228
0.346644908354
0.346644908857
0.346673111421
0.346673118457
0.346673108667
0.346673106398
0.346673114976
0.34667311097
0.346673094075
0.346673090084
0.34667310567
0.346673110168
0.346673102843
0.346673109388
0.346673107581
0.346673103643
0.346673117526
0.346673117396
0.346673098741
0.346673090123
0.346673087787
0.346673080862
0.346673080348
0.346673085445
0.346673086934
0.346673083152
0.346673076737
0.34667308488
0.346673110632
0.346673124403
0.346673121245
0.346673114827
0.346673106946
0.346673105361
0.346702264195
0.346702272132
0.346702293527
0.346702291346
0.346702278293
0.346702277919
0.346702275339
0.346702265768
0.346702257857
0.346702239702
0.346702233226
0.346702241901
0.346702251078
0.346702256989
0.346702259542
0.346702265854
0.346702262597
0.346702256173
0.346702257629
0.346702240996
0.34670222882
0.346702226523
0.346702229465
0.346702231889
0.346702229708
0.346702243752
0.346702252998
0.346702236694
0.346702234253
0.346702249513
0.346702265937
0.346702268906
0.346732303439
0.346732307681
0.346732323493
0.346732320746
0.346732308503
0.34673231
0.346732323946
0.346732328799
0.346732317095
0.346732309715
0.346732299759
0.346732300116
0.346732320186
0.346732327551
0.346732318567
0.34673231497
0.346732314803
0.346732320421
0.34673233613
0.3467323348
0.346732317266
0.346732314372
0.346732310552
0.346732310509
0.346732305771
0.346732299163
0.346732300692
0.346732296628
0.346732304981
0.346732313632
0.346732315284
0.346732312304
0.34676318717
0.346763180397
0.346763177727
0.346763188964
0.346763209335
0.346763214751
0.346763196395
0.346763195475
0.346763213229
0.346763213671
0.346763203011
0.346763205955
0.346763219187
0.346763237254
0.34676323944
0.346763243193
0.346763245207
0.346763233002
0.3467632285
0.346763233731
0.346763228878
0.346763206901
0.346763201285
0.346763222244
0.346763220727
0.346763210717
0.346763212403
0.346763214017
0.346763226649
0.346763215935
0.346763191091
0.346763182922
0.346794890019
0.346794893431
0.346794898225
0.34679491121
0.346794912545
0.346794904778
0.346794904098
0.346794912458
0.346794910853
0.34679490501
0.346794917969
0.346794925646
0.346794925551
0.346794923643
0.346794923464
0.346794931385
0.346794933275
0.346794944702
0.346794939579
0.346794924223
0.346794919311
0.346794924881
0.346794919435
0.346794916091
0.346794914291
0.346794919329
0.346794930002
0.3467949337
0.346794931637
0.346794906147
0.3467948944
0.346794890365
0.346827342971
0.346827346949
0.346827349116
0.34682734398
0.346827339119
0.346827333382
0.346827328505
0.346827322835
0.346827323462
0.346827341245
0.346827353036
0.34682736123
0.346827366939
0.346827364168
0.346827361933
0.346827357226
0.346827358002
0.346827348313
0.346827339757
0.346827340578
0.346827340292
0.346827326952
0.346827324849
0.346827344889
0.346827354929
0.346827352346
0.346827346453
0.346827344552
0.34682735704
0.346827353625
0.346827338432
0.346827336008
0.346860509276
0.346860512235
0.346860498927
0.34686049656
0.346860504614
0.346860494725
0.346860475994
0.346860471491
0.346860464111
0.346860459632
0.346860458012
0.346860457364
0.346860462366
0.346860469918
0.346860494393
0.346860504141
0.346860493847
0.346860503946
0.346860503521
0.346860493061
0.346860493974
0.346860493421
0.346860501357
0.346860516009
0.346860519499
0.346860511076
0.346860506845
0.346860511568
0.346860524745
0.346860524347
0.3468605099
0.346860501076
0.346894235997
0.346894219482
0.346894212335
0.346894216655
0.346894221643
0.346894216264
0.346894206075
0.346894201655
0.346894195266
0.346894196538
0.346894202047
0.346894207231
0.346894212787
0.346894217722
0.346894239673
0.346894249869
0.346894253969
0.346894253477
0.346894240848
0.346894245633
0.346894253537
0.346894259561
0.346894265727
0.346894265909
0.346894262164
0.346894256302
0.346894257591
0.346894264426
0.346894259762
0.346894257109
0.346894254207
0.346894242775
0.346928522911
0.346928517247
0.346928515861
0.346928521273
0.346928517519
0.346928500417
0.346928491747
0.346928493313
0.346928491603
0.346928493632
0.346928491138
0.346928489545
0.346928495917
0.34692849326
0.346928495677
0.346928510392
0.346928533793
0.346928538997
0.346928517701
0.346928515389
0.346928527837
0.346928540747
0.346928549935
0.346928555195
0.346928554126
0.346928550221
0.346928550414
0.34692854106
0.346928528895
0.346928527335
0.346928536614
0.346928531463
0.346963330664
0.346963326487
0.346963325737
0.346963328606
0.346963320582
0.346963314693
0.346963322974
0.346963317835
0.346963308476
0.346963298677
0.346963283257
0.346963279743
0.346963292579
0.346963298537
0.346963300599
0.346963322139
0.346963328638
0.346963314531
0.346963309123
0.346963317989
0.346963333797
0.34696333026
0.346963318358
0.346963317017
0.346963312781
0.346963308166
0.346963298951
0.346963297248
0.34696331063
0.346963326212
0.346963330889
0.346963328394
0.346998478994
0.346998491359
0.346998512376
0.34699851993
0.346998508936
0.346998500313
0.346998484731
0.346998478816
0.346998491201
0.346998498475
0.346998484873
0.346998475642
0.346998473806
0.346998464504
0.346998460474
0.346998474964
0.346998496989
0.346998493894
0.346998476224
0.346998471081
0.346998482067
0.346998486565
0.346998487288
0.34699848242
0.346998464306
0.346998462603
0.346998475648
0.346998497183
0.346998502773
0.346998488752
0.346998479227
0.346998474233
0.347033955725
0.347033947684
0.347033954984
0.347033975104
0.347033984766
0.347033979477
0.347033980973
0.347033981833
0.347033979665
0.347033974006
0.347033972238
0.347033963872
0.347033964012
0.34703395832
0.347033950438
0.347033964431
0.34703396958
0.347033954919
0.347033950555
0.347033950775
0.347033952872
0.347033960926
0.347033972406
0.347033974141
0.34703397913
0.347033986457
0.347033971173
0.347033971497
0.347033981083
0.347033975027
0.347033969331
0.347033968935
0.347069650184
0.347069649218
0.347069652578
0.347069672518
0.347069684843
0.347069688329
0.347069689166
0.347069684271
0.347069685899
0.347069674942
0.347069652818
0.347069643324
0.347069643413
0.347069635763
0.347069637507
0.347069657715
0.347069674842
0.34706968351
0.347069686673
0.347069690784
0.3470696932
0.347069684514
0.347069672013
0.34706966233
0.347069661387
0.347069649775
0.347069643475
0.347069651048
0.347069660495
0.347069678663
0.347069679807
0.347069657714
0.347105499592
0.347105508332
0.347105511883
0.347105512305
0.347105511095
0.34710551693
0.347105518765
0.347105505814
0.34710549526
0.347105487778
0.347105485878
0.347105489306
0.34710548514
0.347105466518
0.347105463282
0.347105481166
0.347105503768
0.347105530871
0.347105540173
0.347105531545
0.347105533084
0.347105526215
0.347105511381
0.34710549944
0.34710549525
0.347105486549
0.347105480435
0.347105477615
0.347105480001
0.347105500958
0.347105507258
0.347105497289
0.34714139026
0.34714138128
0.347141372676
0.347141369781
0.347141365648
0.347141364407
0.347141366396
0.347141373967
0.34714136475
0.34714134263
0.347141335436
0.347141340808
0.347141331923
0.347141323337
0.347141325808
0.347141322917
0.347141323756
0.347141331282
0.347141333101
0.347141340068
0.347141344213
0.347141336348
0.347141330479
0.347141330797
0.34714133929
0.347141344537
0.347141349395
0.34714136609
0.347141383243
0.347141391745
0.347141389018
0.347141387955
0.347177175469
0.347177162108
0.347177147408
0.347177147007
0.347177150134
0.347177161332
0.34717716262
0.347177155861
0.347177149005
0.347177136066
0.347177125236
0.347177104952
0.347177096189
0.347177105996
0.347177126065
0.347177131335
0.347177121406
0.347177125938
0.347177132633
0.347177128761
0.347177127058
0.347177132906
0.34717712276
0.347177116925
0.347177128861
0.347177150787
0.347177159166
0.347177152209
0.347177168469
0.347177178953
0.34717717722
0.347177175208
0.347212727948
0.347212751593
0.347212744137
0.347212737842
0.347212732433
0.347212727293
0.347212729095
0.347212728112
0.347212722761
0.347212711783
0.347212699934
0.347212676231
0.347212662579
0.347212658066
0.347212663011
0.347212681709
0.347212699982
0.347212711009
0.347212714718
0.347212729225
0.347212731833
0.34721271759
0.347212698445
0.347212691811
0.347212704637
0.347212712882
0.347212707987
0.347212706143
0.347212714478
0.34721271803
0.347212717864
0.347212717557
0.347247992867
0.347247988388
0.347247982781
0.347247978634
0.347247975973
0.347247973212
0.347247976244
0.347247979472
0.347247976102
0.347247970106
0.347247968849
0.347247947684
0.347247935202
0.347247943957
0.347247961468
0.347247976808
0.347247986313
0.347247986209
0.347247982819
0.347247979378
0.347247976261
0.347247973843
0.347247960058
0.347247956947
0.347247966379
0.347247983212
0.347247984946
0.347247964287
0.347247957695
0.34724795909
0.347247963613
0.347247983011
0.347282839731
0.347282827189
0.347282825311
0.347282826157
0.347282829459