/*--------------------------------*- C++ -*----------------------------------*\
| =========                 |                                                 |
| \\      /  F ield         | OpenFOAM: The Open Source CFD Toolbox           |
|  \\    /   O peration     | Version:  v2012                                 |
|   \\  /    A nd           | Website:  www.openfoam.com                      |
|    \\/     M anipulation  |                                                 |
\*---------------------------------------------------------------------------*/
FoamFile
{
    version     2.0;
    format      ascii;
    class       volScalarField;
    location    "50000";
    object      nut;
}
// * * * * * * * * * * * * * * * * * * * * * * * * * * * * * * * * * * * * * //

dimensions      [0 2 -1 0 0 0 0];


internalField   nonuniform List<scalar> 
3200
(
0.000711765086348
0.000711764894846
0.000711765026486
0.00071176503551
0.000711765049333
0.000711765058431
0.000711765054533
0.000711765088878
0.000711765093173
0.000711765051303
0.000711764910434
0.000711765255456
0.000711765057603
0.000711765141375
0.00071176511256
0.000711764921811
0.000711765236843
0.000711765209011
0.000711765207736
0.000711765101268
0.000711765220998
0.000711765105687
0.000711765077044
0.000711765178684
0.000711765113888
0.000711765200469
0.000711765031894
0.00071176506353
0.000711765074965
0.000711765130929
0.000711765046403
0.000711765119554
0.00171760770783
0.00171760819952
0.00171760842017
0.00171760823179
0.00171760861611
0.0017176086715
0.0017176087202
0.00171760829441
0.00171760850428
0.0017176080112
0.00171760810571
0.00171760847375
0.00171760786216
0.0017176084671
0.00171760857785
0.00171760806035
0.00171760825183
0.0017176086836
0.00171760816056
0.00171760793729
0.00171760814719
0.00171760754458
0.00171760838092
0.00171760788425
0.00171760803006
0.00171760819125
0.00171760845566
0.0017176083897
0.00171760798948
0.00171760838368
0.00171760824205
0.00171760794581
0.0027164594978
0.00271645938215
0.0027164595426
0.00271646034303
0.00271646016906
0.00271646120653
0.00271646088132
0.00271646064482
0.00271646002968
0.00271645992254
0.00271645969757
0.00271646042306
0.00271646023663
0.00271646025776
0.00271645982481
0.00271645974988
0.00271646036359
0.00271646010039
0.00271645930811
0.00271645917102
0.00271645975844
0.00271645985118
0.00271645957529
0.00271645918005
0.0027164594465
0.00271646015693
0.00271645969884
0.00271646026239
0.00271646031513
0.00271646011179
0.00271645953009
0.0027164595939
0.00377867499658
0.00377867432468
0.0037786737936
0.00377867470964
0.00377867528397
0.00377867519187
0.00377867547069
0.00377867425587
0.0037786746509
0.0037786739538
0.00377867394816
0.00377867491303
0.00377867464661
0.00377867499072
0.00377867480305
0.00377867457088
0.00377867473005
0.00377867358042
0.00377867400511
0.00377867337647
0.00377867402707
0.00377867459658
0.00377867419976
0.00377867434962
0.00377867302351
0.00377867466211
0.0037786736969
0.00377867377439
0.00377867444901
0.0037786741401
0.00377867364796
0.0037786741744
0.00489049850943
0.00489049760991
0.0048904969667
0.00489049837524
0.00489049855766
0.00489049842274
0.0048905000649
0.00489049931426
0.00489049814208
0.00489049812518
0.00489049858221
0.00489049834816
0.00489049801263
0.00489049811318
0.00489049847521
0.00489049857625
0.00489049856868
0.00489049821464
0.00489049759365
0.00489049818186
0.00489049861231
0.00489049773986
0.00489049677025
0.0048904974805
0.00489049796417
0.00489049802919
0.00489049629384
0.00489049710848
0.00489049723343
0.00489049749953
0.00489049766499
0.00489049773809
0.00604640491338
0.00604640318806
0.00604640173278
0.00604640319854
0.00604640328668
0.0060464053151
0.00604640542624
0.00604640564918
0.00604640293927
0.00604640231172
0.00604640420978
0.00604640453631
0.00604640331039
0.00604640257105
0.00604640326615
0.00604640404683
0.00604640392827
0.00604640368994
0.00604640346932
0.00604640144022
0.00604640411489
0.006046403486
0.00604640303567
0.0060464018609
0.00604640335358
0.00604640387469
0.00604640355733
0.00604640235323
0.0060464027839
0.00604640119647
0.00604640379765
0.00604640267962
0.007244171206
0.00724417096662
0.00724416914395
0.00724416823142
0.00724417133047
0.00724417217038
0.00724417104208
0.00724417037774
0.00724416966408
0.00724416819094
0.00724417059103
0.00724416819517
0.00724416797458
0.0072441670836
0.00724417017193
0.00724416993265
0.00724417091675
0.00724416991779
0.00724416913398
0.00724416857098
0.00724416951895
0.00724417031631
0.0072441670812
0.00724416893792
0.00724416907051
0.00724416961632
0.00724416833669
0.00724416872808
0.00724416975056
0.0072441688939
0.00724417035482
0.00724416885328
0.00848307693719
0.00848307824874
0.00848307642919
0.00848307806876
0.00848307749026
0.00848307824764
0.00848307679644
0.00848307352796
0.00848307570292
0.00848307643074
0.00848307611152
0.00848307543538
0.00848307473169
0.00848307576037
0.00848307686574
0.00848307748771
0.00848307729121
0.00848307371486
0.00848307626258
0.00848307536633
0.00848307675327
0.00848307682884
0.00848307521085
0.00848307563463
0.00848307566948
0.00848307660922
0.00848307561946
0.00848307429689
0.00848307628068
0.00848307503988
0.00848307674395
0.00848307509802
0.00976316715269
0.00976316671611
0.00976316613029
0.00976316822785
0.00976316517705
0.0097631662828
0.00976316592844
0.0097631653045
0.00976316633281
0.00976316557656
0.00976316553204
0.00976316583918
0.00976316616002
0.0097631652594
0.00976316610729
0.00976316560723
0.00976316572161
0.00976316377883
0.00976316148739
0.00976316539391
0.0097631658641
0.00976316414983
0.00976316544082
0.00976316573248
0.00976316548924
0.00976316582261
0.00976316602679
0.00976316411957
0.00976316570711
0.00976316447407
0.00976316596459
0.00976316470431
0.0110849089794
0.011084911033
0.0110849103565
0.011084909405
0.0110849108623
0.0110849093037
0.0110849094167
0.0110849098089
0.0110849084058
0.0110849093751
0.0110849087999
0.0110849097753
0.0110849087846
0.0110849073854
0.0110849105786
0.011084909207
0.0110849083259
0.0110849072933
0.0110849050313
0.0110849085808
0.0110849094572
0.0110849089249
0.0110849095538
0.0110849095359
0.0110849097612
0.0110849093099
0.0110849097416
0.0110849077889
0.0110849100122
0.0110849087176
0.0110849085886
0.0110849074569
0.012449047681
0.0124490454096
0.0124490455278
0.0124490449789
0.0124490482793
0.0124490450134
0.0124490460138
0.0124490447982
0.0124490434131
0.0124490427104
0.0124490429295
0.0124490448747
0.0124490432852
0.0124490410057
0.0124490456756
0.0124490439206
0.0124490430424
0.0124490435733
0.0124490428019
0.0124490416461
0.0124490442438
0.0124490416548
0.0124490449836
0.0124490407115
0.0124490444253
0.0124490441102
0.012449041385
0.0124490426659
0.0124490459373
0.0124490422886
0.0124490428837
0.012449041432
0.0138564858525
0.0138564843329
0.013856484689
0.0138564849215
0.0138564846258
0.0138564835879
0.0138564826207
0.0138564823419
0.0138564819814
0.0138564824188
0.0138564824024
0.0138564829765
0.0138564815829
0.0138564827091
0.0138564825204
0.0138564841018
0.013856478024
0.0138564835996
0.013856479835
0.0138564801489
0.0138564822743
0.0138564817732
0.0138564799659
0.0138564789639
0.0138564824907
0.013856481932
0.0138564815341
0.0138564804586
0.0138564867567
0.0138564797257
0.0138564815315
0.0138564786519
0.0153082667203
0.0153082634148
0.0153082644256
0.0153082661049
0.0153082659471
0.0153082618105
0.0153082647467
0.0153082638582
0.0153082626117
0.0153082632243
0.0153082623089
0.0153082624299
0.0153082576226
0.0153082632566
0.0153082608233
0.0153082605712
0.0153082599426
0.0153082619531
0.0153082614136
0.0153082607183
0.015308259886
0.01530826232
0.0153082569215
0.0153082579006
0.0153082608444
0.0153082617148
0.0153082606032
0.015308259604
0.0153082650074
0.0153082613093
0.0153082621069
0.0153082581783
0.0168055228244
0.0168055188358
0.0168055188515
0.0168055202587
0.0168055199822
0.0168055134398
0.0168055202532
0.0168055125386
0.0168055168105
0.0168055179921
0.016805517408
0.0168055194558
0.0168055153669
0.0168055176826
0.0168055166041
0.0168055160074
0.0168055158445
0.0168055167732
0.0168055167195
0.0168055150626
0.0168055122383
0.0168055130783
0.0168055134521
0.0168055142991
0.0168055146587
0.0168055129469
0.0168055128843
0.0168055170271
0.0168055199383
0.0168055158432
0.016805517351
0.0168055142188
0.018349462533
0.0183494605411
0.0183494606904
0.0183494616983
0.0183494605654
0.0183494558203
0.0183494625316
0.0183494589709
0.0183494588977
0.0183494581251
0.0183494585489
0.0183494614799
0.018349453446
0.0183494558771
0.018349455451
0.0183494577057
0.0183494581073
0.0183494590242
0.0183494592077
0.0183494560796
0.0183494556735
0.0183494548094
0.0183494542368
0.0183494509633
0.0183494599111
0.0183494562203
0.0183494529259
0.0183494591789
0.0183494602971
0.0183494576947
0.0183494556273
0.0183494558779
0.0199413692884
0.0199413705578
0.0199413640542
0.0199413671284
0.0199413661679
0.0199413625138
0.0199413684671
0.0199413663855
0.0199413664289
0.0199413640969
0.0199413674111
0.0199413616117
0.0199413557787
0.0199413645962
0.0199413628133
0.0199413615932
0.0199413635402
0.0199413625384
0.0199413646503
0.0199413625027
0.0199413622864
0.019941363151
0.0199413579306
0.0199413600657
0.0199413576732
0.0199413639762
0.0199413628768
0.0199413645771
0.019941364272
0.0199413594858
0.0199413633362
0.0199413623504
0.0215825784655
0.0215825759664
0.021582574478
0.0215825749296
0.0215825719927
0.02158257406
0.0215825778648
0.0215825738234
0.021582574347
0.0215825718717
0.021582572274
0.0215825703723
0.0215825700564
0.021582571329
0.0215825689603
0.0215825693329
0.0215825728252
0.0215825699461
0.0215825704784
0.0215825706759
0.0215825715538
0.021582569411
0.0215825632055
0.0215825700137
0.0215825699786
0.0215825699839
0.0215825709025
0.0215825705544
0.0215825709991
0.0215825696334
0.0215825714918
0.0215825689591
0.0232744785018
0.0232744751834
0.02327447204
0.0232744699737
0.0232744763776
0.0232744758616
0.0232744802156
0.02327447363
0.0232744742852
0.0232744714473
0.0232744717827
0.0232744692023
0.0232744712102
0.0232744703345
0.0232744634072
0.0232744702173
0.0232744679474
0.0232744692648
0.0232744697361
0.0232744696578
0.0232744713275
0.0232744669665
0.0232744643823
0.0232744687725
0.0232744706826
0.023274466497
0.0232744739306
0.0232744687812
0.0232744688864
0.0232744639219
0.0232744717044
0.023274469994
0.0250185099886
0.0250185090664
0.0250185131413
0.025018507684
0.0250185126032
0.0250185084586
0.0250185126443
0.0250185064394
0.0250185063592
0.0250185073423
0.0250185055271
0.0250184971608
0.0250185044431
0.0250185029328
0.0250185020772
0.0250185017518
0.0250185022099
0.025018501781
0.0250185018725
0.0250185035489
0.0250185048225
0.0250185028906
0.0250185011451
0.0250184975446
0.0250185045745
0.0250184963361
0.0250185096911
0.0250185012246
0.0250185027546
0.0250185008698
0.0250185035991
0.0250185013811
0.0268161659276
0.0268161644202
0.0268161675437
0.0268161649221
0.0268161650558
0.026816165773
0.0268161642448
0.0268161625458
0.0268161622804
0.0268161630028
0.0268161601023
0.0268161569851
0.0268161586593
0.0268161583358
0.0268161582691
0.0268161560695
0.026816158951
0.0268161595107
0.0268161525471
0.0268161615628
0.0268161619728
0.0268161617195
0.0268161578131
0.0268161580811
0.0268161615074
0.0268161564911
0.0268161646271
0.0268161590287
0.0268161598405
0.0268161519737
0.0268161619013
0.0268161590012
0.0286689785356
0.0286689783989
0.0286689783926
0.0286689792122
0.028668978241
0.0286689769161
0.0286689784413
0.0286689777231
0.0286689758116
0.0286689755253
0.0286689748422
0.0286689642894
0.0286689719952
0.0286689716706
0.0286689721829
0.0286689725656
0.0286689737028
0.028668971168
0.0286689704847
0.0286689729232
0.0286689748472
0.0286689778118
0.0286689707114
0.0286689725117
0.0286689670581
0.028668972294
0.028668972339
0.0286689730853
0.0286689732284
0.0286689716437
0.028668973797
0.0286689719847
0.030578530896
0.0305785341747
0.030578533345
0.030578532034
0.0305785312459
0.0305785248255
0.0305785333795
0.030578533259
0.0305785276698
0.0305785265687
0.0305785225593
0.0305785254318
0.0305785262144
0.0305785252836
0.0305785193601
0.0305785266794
0.0305785255317
0.0305785238273
0.0305785189187
0.0305785271468
0.0305785279018
0.030578528828
0.0305785255375
0.0305785264893
0.0305785262345
0.030578518176
0.0305785256696
0.0305785274036
0.0305785252618
0.0305785265271
0.0305785270929
0.0305785231914
0.0325464457094
0.0325464530651
0.0325464449095
0.0325464564329
0.0325464505253
0.0325464486453
0.0325464407172
0.0325464489089
0.0325464460634
0.0325464435478
0.0325464453109
0.0325464447785
0.0325464465173
0.0325464450064
0.0325464432562
0.0325464432722
0.032546446615
0.0325464411244
0.0325464416615
0.0325464430223
0.0325464415376
0.0325464436909
0.0325464430418
0.0325464431711
0.0325464446035
0.032546440699
0.0325464395901
0.0325464425813
0.0325464438338
0.0325464437473
0.0325464469503
0.0325464364532
0.0345744028952
0.0345744029831
0.0345744027408
0.0345744028689
0.0345744007999
0.0345743957034
0.0345743987196
0.0345743992149
0.0345743977558
0.0345743978577
0.0345743964768
0.0345743966488
0.0345743977056
0.0345743972165
0.0345743978059
0.0345743952957
0.0345743936892
0.0345743862655
0.0345743940354
0.0345743931016
0.0345743913868
0.0345743955745
0.0345743939707
0.0345743941308
0.034574395807
0.0345743946367
0.0345743935403
0.0345743959335
0.0345743953176
0.0345743949648
0.0345743947431
0.0345743927768
0.036664092964
0.036664100554
0.0366641006478
0.0366640991266
0.0366640991376
0.0366640969559
0.0366640958169
0.0366640965076
0.0366640966908
0.0366640953757
0.0366640976312
0.0366640983231
0.036664095882
0.0366640941208
0.0366640952601
0.0366640873876
0.0366640948736
0.0366640895378
0.0366640849267
0.0366640909758
0.0366640933359
0.0366640948199
0.0366640928147
0.0366640868661
0.0366640952227
0.0366640987948
0.036664095581
0.0366640951091
0.0366640922889
0.0366640939515
0.0366640936359
0.0366640905805
0.0388172952401
0.0388172886681
0.0388172985175
0.0388172931634
0.0388172974501
0.0388172941296
0.0388172856194
0.0388172936998
0.0388172931059
0.0388172935102
0.0388172858569
0.0388172971014
0.038817294087
0.0388172886222
0.0388172927466
0.0388172907011
0.0388172941342
0.0388172885018
0.0388172809099
0.0388172940734
0.0388172871922
0.038817292158
0.0388172921392
0.0388172902368
0.0388172911065
0.0388172921579
0.0388172911931
0.0388172922629
0.0388172917214
0.0388172958297
0.0388172894232
0.0388172888948
0.041035781561
0.0410357823504
0.0410357839813
0.0410357858403
0.0410357843962
0.0410357819323
0.0410357804484
0.0410357798787
0.0410357815215
0.0410357799863
0.04103577917
0.041035777196
0.0410357828433
0.0410357811482
0.0410357786688
0.041035782425
0.0410357814097
0.0410357762269
0.0410357704926
0.041035780262
0.0410357767554
0.0410357788126
0.0410357808115
0.0410357783773
0.0410357817453
0.0410357765698
0.0410357771239
0.041035781591
0.0410357747701
0.0410357782499
0.0410357724969
0.041035779382
0.0433214115484
0.043321409571
0.0433214095989
0.043321410215
0.0433214118814
0.0433214068193
0.0433214076587
0.0433214065829
0.0433214069057
0.0433214063396
0.043321406392
0.043321404373
0.0433214087492
0.0433214114928
0.0433214057231
0.04332140902
0.0433214019633
0.0433214018774
0.0433214008032
0.0433214029501
0.0433214024619
0.0433214020164
0.0433214037533
0.0433214029933
0.0433214030692
0.0433214019602
0.0433214008205
0.0433214009852
0.0433214014971
0.0433214067657
0.0433214014087
0.0433214037068
0.0456760550436
0.0456760466913
0.0456760522306
0.0456760525418
0.0456760534415
0.0456760511701
0.0456760506745
0.0456760510674
0.0456760527665
0.0456760522162
0.0456760486766
0.0456760459916
0.0456760532559
0.0456760520001
0.045676047497
0.045676049413
0.0456760415763
0.0456760465621
0.0456760466706
0.0456760469544
0.0456760429725
0.045676037347
0.0456760449704
0.0456760447658
0.0456760447817
0.0456760468754
0.0456760438652
0.0456760438308
0.0456760434021
0.0456760450074
0.04567604634
0.0456760453129
0.048101634531
0.0481016309611
0.048101632076
0.0481016348357
0.0481016329426
0.0481016332048
0.0481016340642
0.0481016346293
0.0481016378879
0.0481016325316
0.0481016363907
0.0481016309256
0.0481016327833
0.048101625389
0.0481016353834
0.0481016321148
0.0481016297441
0.048101628952
0.0481016274361
0.0481016271343
0.0481016270667
0.0481016224798
0.0481016184441
0.0481016301853
0.0481016314697
0.0481016355449
0.0481016268165
0.0481016265365
0.0481016267995
0.0481016293661
0.0481016299851
0.0481016259106
0.0506001211078
0.0506001138974
0.0506001126933
0.0506001149773
0.0506001163483
0.0506001144069
0.0506001176406
0.050600114555
0.0506001132921
0.0506001121342
0.0506001147783
0.0506001173629
0.0506001140525
0.0506001124161
0.0506001186634
0.0506001101353
0.0506001077884
0.0506001067612
0.0506001066926
0.0506001086894
0.0506001086098
0.0506001055128
0.0506000981972
0.0506001109164
0.0506001122627
0.0506001115
0.0506001077369
0.0506001063449
0.0506001043958
0.0506001110961
0.0506001123418
0.0506001046684
0.053173497082
0.0531734952415
0.0531734876682
0.0531734905306
0.0531734921721
0.0531734922318
0.0531734917506
0.0531734906555
0.0531734834059
0.0531734905445
0.0531734888976
0.053173488145
0.053173488184
0.0531734829696
0.0531734906246
0.0531734806141
0.0531734857261
0.0531734840639
0.0531734831442
0.0531734834913
0.053173483563
0.0531734804088
0.0531734836518
0.053173486944
0.0531734840079
0.0531734845459
0.0531734827216
0.0531734834195
0.053173484898
0.0531734862021
0.0531734869483
0.0531734863418
0.0558238043381
0.0558237922087
0.0558237980908
0.0558237916619
0.0558237994982
0.0558237961531
0.0558237956599
0.055823798332
0.0558237937688
0.0558237928277
0.0558237881766
0.0558237973641
0.0558238025293
0.0558238010461
0.0558237969794
0.0558237893809
0.0558237850486
0.0558237952255
0.0558237940298
0.0558237886467
0.0558237946105
0.0558237932647
0.0558237919192
0.0558237920142
0.0558237931007
0.0558237933684
0.0558237916387
0.055823792584
0.0558237974613
0.0558237923884
0.055823794438
0.0558237938118
0.0585531107818
0.058553110667
0.0585531111384
0.0585531098756
0.0585531090452
0.0585531092489
0.0585531024731
0.0585530991654
0.0585531108573
0.0585531025068
0.0585531023982
0.0585531051867
0.0585531106411
0.0585531064428
0.0585531064126
0.0585531016664
0.0585530964668
0.0585531075458
0.0585531066459
0.0585531095357
0.0585531073615
0.0585531069415
0.058553104521
0.058553108192
0.0585531016279
0.0585531010229
0.0585530985412
0.0585531030414
0.0585531033168
0.0585531052907
0.0585531025564
0.0585531016968
0.0613635276885
0.0613635294613
0.0613635318514
0.0613635261842
0.0613635262672
0.0613635238392
0.0613635222124
0.0613635228633
0.0613635245449
0.0613635203471
0.0613635236809
0.0613635203503
0.0613635220984
0.0613635226079
0.0613635243997
0.0613635229092
0.0613635195482
0.0613635218359
0.0613635206255
0.0613635182529
0.0613635275183
0.0613635269095
0.0613635234023
0.0613635207574
0.0613635186427
0.0613635200534
0.0613635210625
0.0613635192762
0.0613635218626
0.0613635211956
0.0613635242183
0.0613635225366
0.0642571900778
0.0642571890064
0.0642571888589
0.0642571890781
0.0642571830426
0.0642571860538
0.0642571805406
0.0642571862538
0.0642571886485
0.0642571834178
0.0642571842543
0.0642571839704
0.0642571878411
0.0642571827147
0.0642571817443
0.0642571826484
0.0642571814742
0.0642571855497
0.0642571844739
0.0642571874135
0.0642571879929
0.0642571872008
0.0642571828493
0.0642571795282
0.0642571782425
0.0642571749298
0.0642571814461
0.0642571795443
0.0642571815454
0.0642571842043
0.0642571838818
0.064257184545
0.0672362600667
0.0672362603394
0.0672362603176
0.0672362593182
0.067236255785
0.067236254216
0.0672362555747
0.0672362577521
0.0672362549535
0.0672362534409
0.0672362523791
0.0672362492454
0.0672362537393
0.067236251759
0.0672362564125
0.0672362500254
0.06723625001
0.0672362499023
0.0672362487666
0.067236254807
0.0672362564073
0.0672362619397
0.0672362567155
0.0672362538442
0.0672362511396
0.067236247767
0.0672362506968
0.0672362536691
0.0672362556684
0.067236252465
0.0672362533803
0.0672362543988
0.0703029331908
0.0703029321204
0.0703029292068
0.0703029271692
0.0703029274862
0.0703029286174
0.0703029303585
0.0703029251078
0.0703029245005
0.0703029268868
0.070302927207
0.0703029275384
0.070302921983
0.0703029193629
0.0703029277676
0.0703029245744
0.0703029242696
0.0703029219447
0.0703029255357
0.0703029247725
0.0703029271818
0.0703029291151
0.0703029227587
0.0703029231283
0.0703029255759
0.0703029196698
0.0703029239571
0.0703029294429
0.070302928255
0.0703029280989
0.0703029282624
0.0703029281947
0.0734594244826
0.073459422123
0.0734594210455
0.0734594162685
0.0734594183898
0.0734594152496
0.0734594140958
0.0734594149487
0.0734594141948
0.0734594198604
0.0734594166119
0.0734594142681
0.0734594121844
0.073459413609
0.0734594128456
0.0734594138929
0.0734594146698
0.0734594150588
0.0734594176688
0.0734594153098
0.0734594156312
0.0734594153069
0.0734594138134
0.0734594142147
0.0734594155953
0.0734594125267
0.0734594167571
0.0734594160381
0.0734594194688
0.0734594175917
0.0734594156025
0.0734594160409
0.0767079726689
0.0767079691972
0.0767079673317
0.0767079635533
0.0767079623908
0.0767079636268
0.0767079610096
0.0767079625388
0.0767079635162
0.0767079645294
0.0767079601548
0.0767079583172
0.0767079561296
0.0767079561206
0.0767079568312
0.0767079601146
0.0767079631101
0.0767079634582
0.0767079583561
0.0767079549034
0.0767079539602
0.0767079562274
0.0767079572978
0.0767079602661
0.0767079594757
0.0767079578954
0.0767079591084
0.0767079645592
0.0767079649832
0.0767079653085
0.0767079618656
0.0767079666178
0.0800508189826
0.0800508180358
0.0800508153309
0.0800508141095
0.0800508147029
0.0800508180036
0.0800508176877
0.0800508131869
0.0800508125644
0.0800508128933
0.0800508161544
0.0800508179798
0.080050814544
0.0800508107905
0.0800508100851
0.0800508132937
0.0800508096388
0.0800508086706
0.0800508132981
0.0800508120166
0.0800508110606
0.0800508133324
0.0800508121001
0.0800508106961
0.0800508090466
0.0800508096297
0.0800508114165
0.0800508142419
0.0800508203451
0.0800508151259
0.0800508144501
0.0800508172512
0.0834902414525
0.083490243237
0.0834902445196
0.0834902440262
0.0834902398092
0.0834902379837
0.0834902363147
0.0834902334915
0.083490232798
0.0834902356707
0.083490240543
0.0834902417545
0.0834902375169
0.083490235071
0.0834902346757
0.0834902358793
0.0834902340446
0.0834902325616
0.0834902365355
0.0834902368117
0.0834902333313
0.0834902314216
0.0834902311341
0.0834902319413
0.0834902284159
0.0834902277024
0.0834902338696
0.0834902378792
0.0834902403013
0.083490236321
0.0834902348485
0.08349023581
0.0870285062787
0.0870285075348
0.0870285085627
0.0870285097503
0.08702850499
0.0870285016571
0.0870284978284
0.0870284964329
0.0870284997991
0.0870285003403
0.0870284983691
0.0870284961248
0.087028494634
0.087028495511
0.0870284987489
0.0870284990365
0.0870284962679
0.0870284951027
0.0870284958516
0.0870284964498
0.0870284951478
0.0870284932209
0.0870284969359
0.0870284972272
0.087028491558
0.0870284908204
0.0870284956761
0.087028498958
0.0870284965883
0.0870284965866
0.0870284964464
0.087028497345
0.0906678737482
0.0906678753005
0.0906678736967
0.0906678717704
0.0906678740493
0.0906678729044
0.0906678684015
0.0906678672297
0.0906678710264
0.0906678722771
0.0906678709157
0.0906678713914
0.0906678711539
0.0906678702923
0.0906678738968
0.0906678737836
0.0906678693237
0.0906678653522
0.0906678646745
0.0906678628591
0.0906678626641
0.0906678638589
0.090667863986
0.0906678628802
0.0906678611263
0.0906678631
0.090667870007
0.0906678742412
0.0906678718519
0.090667870348
0.0906678683719
0.0906678685509
0.094410621039
0.0944106234586
0.0944106293221
0.0944106288482
0.0944106257556
0.0944106247511
0.0944106240695
0.0944106214256
0.0944106190759
0.0944106138531
0.0944106118745
0.0944106141207
0.094410616556
0.0944106182971
0.0944106191658
0.0944106213469
0.0944106194348
0.0944106174421
0.0944106175868
0.0944106129441
0.0944106095544
0.0944106088278
0.0944106095302
0.0944106101014
0.0944106093267
0.0944106132491
0.0944106163047
0.0944106109598
0.0944106102611
0.0944106149912
0.0944106187389
0.0944106201757
0.098258994206
0.0982589954353
0.098258999977
0.0982589991921
0.0982589955905
0.0982589958837
0.0982589998364
0.098259001262
0.0982589980267
0.0982589961111
0.0982589929207
0.0982589930016
0.0982589987038
0.0982590007571
0.0982589980869
0.0982589969618
0.0982589968403
0.0982589984771
0.0982590027342
0.0982590022948
0.0982589972897
0.0982589961257
0.0982589949673
0.0982589950052
0.0982589935948
0.0982589917734
0.0982589921743
0.0982589910088
0.0982589933582
0.0982589958048
0.0982589962896
0.098258995716
0.10221522766
0.102215225665
0.102215224838
0.102215228078
0.102215234043
0.10221523554
0.102215230121
0.102215229849
0.102215235181
0.102215235405
0.10221523233
0.10221523323
0.102215237183
0.102215242539
0.102215243226
0.102215244322
0.10221524487
0.102215241254
0.102215239878
0.102215241306
0.10221523978
0.102215233193
0.102215231593
0.102215237742
0.102215237332
0.102215234572
0.102215235118
0.102215235676
0.102215239437
0.102215236315
0.102215229016
0.102215226578
0.106281532833
0.106281534099
0.106281535448
0.106281539208
0.106281540073
0.106281537706
0.106281537479
0.106281540059
0.106281539864
0.106281538196
0.106281542298
0.10628154467
0.106281544714
0.106281544211
0.106281544166
0.106281546675
0.106281547237
0.106281550752
0.106281549114
0.106281544258
0.106281542585
0.106281544212
0.106281542482
0.106281541421
0.106281540735
0.106281543132
0.106281546454
0.106281547719
0.106281547237
0.106281539543
0.106281536059
0.106281534398
0.11046007064
0.11046007168
0.110460072401
0.110460070982
0.110460069048
0.110460068397
0.110460066719
0.110460064538
0.110460066061
0.11046007187
0.110460075996
0.110460079093
0.110460080946
0.110460080093
0.110460079413
0.110460077651
0.110460077374
0.110460074085
0.110460071182
0.110460070904
0.11046007062
0.110460066362
0.110460065848
0.110460072416
0.110460075501
0.110460076397
0.110460074799
0.110460074061
0.110460078797
0.110460077206
0.110460073027
0.110460071088
0.114752963582
0.114752964261
0.114752959944
0.11475295964
0.11475296296
0.114752960355
0.114752954433
0.114752953001
0.114752950763
0.11475294947
0.114752948757
0.114752950008
0.114752950978
0.114752954695
0.114752962556
0.11475296471
0.114752958718
0.114752962755
0.114752963306
0.114752959165
0.114752957115
0.114752958117
0.114752962272
0.114752968541
0.114752970947
0.114752969144
0.114752967376
0.114752970639
0.114752975193
0.114752975141
0.114752970441
0.11475296554
0.119162239957
0.119162235094
0.119162232325
0.119162234388
0.119162236858
0.11916223582
0.119162233094
0.119162231729
0.119162229309
0.119162230129
0.119162232667
0.119162233756
0.1191622376
0.119162239364
0.119162247269
0.119162251285
0.119162253252
0.119162253318
0.119162249042
0.119162250875
0.119162252844
0.11916225488
0.119162257461
0.119162258016
0.119162257615
0.119162256258
0.119162256378
0.119162259864
0.119162257726
0.119162256637
0.119162255383
0.119162248913
0.123689901934
0.123689900605
0.123689899712
0.123689902385
0.123689901977
0.123689896987
0.12368989403
0.123689895065
0.123689894887
0.123689896057
0.123689895964
0.123689895633
0.12368989824
0.123689898201
0.123689899564
0.123689905656
0.123689913152
0.12368991665
0.123689908716
0.123689907964
0.123689911798
0.123689919298
0.123689922827
0.123689924672
0.123689924462
0.123689923255
0.123689923291
0.12368992012
0.123689915769
0.123689915373
0.12368991845
0.123689913203
0.12833784531
0.128337844487
0.128337843713
0.128337845466
0.128337843656
0.128337842645
0.128337846155
0.128337844809
0.128337841893
0.128337838267
0.128337832263
0.128337830898
0.128337835845
0.128337842087
0.128337843532
0.128337851856
0.128337854363
0.128337849752
0.128337848568
0.128337852835
0.128337858294
0.128337857771
0.128337855066
0.128337853064
0.128337853864
0.12833785186
0.128337848696
0.128337849006
0.128337853306
0.128337858745
0.128337859714
0.128337854413
0.133107816652
0.133107820735
0.133107828535
0.133107831588
0.133107828477
0.133107826211
0.133107821306
0.133107820028
0.133107825831
0.133107829772
0.133107825639
0.133107822491
0.133107822523
0.133107819882
0.133107819493
0.133107826031
0.133107834511
0.133107833311
0.133107826915
0.133107828703
0.133107833385
0.13310783553
0.133107835446
0.133107834277
0.133107828032
0.133107828165
0.133107833217
0.133107843838
0.133107845691
0.133107840074
0.133107834677
0.133107826587
0.138001501665
0.138001498066
0.138001501123
0.138001509712
0.138001514943
0.138001514177
0.138001515151
0.138001515666
0.138001515592
0.138001513588
0.138001516656
0.138001513523
0.138001514582
0.138001513693
0.138001511835
0.13800151831
0.138001521564
0.13800151562
0.138001516543
0.138001516191
0.138001516533
0.138001522773
0.13800152681
0.138001527688
0.138001530366
0.138001533171
0.138001530732
0.138001530323
0.138001534576
0.138001532371
0.138001527857
0.13800152053
0.143020410796
0.143020410045
0.143020411708
0.143020420753
0.143020427562
0.143020430869
0.143020432526
0.143020430481
0.143020430815
0.143020429713
0.143020420476
0.143020417471
0.143020418615
0.14302041694
0.143020419133
0.143020429023
0.143020437772
0.143020443097
0.143020446077
0.143020449386
0.143020451816
0.143020449626
0.14302044567
0.14302044134
0.143020440687
0.143020435623
0.143020432908
0.143020437171
0.143020441321
0.143020448247
0.143020446943
0.143020429539
0.148165912792
0.148165916284
0.148165917977
0.148165918657
0.148165919733
0.148165924047
0.148165926438
0.148165921435
0.148165917886
0.148165915722
0.148165914011
0.148165915533
0.148165915364
0.148165909509
0.148165910234
0.148165919933
0.148165931654
0.148165945151
0.148165950656
0.148165948185
0.148165953434
0.148165950957
0.148165945587
0.14816594031
0.148165938562
0.148165935684
0.148165933908
0.148165934542
0.148165936203
0.148165944304
0.148165944252
0.148165929951
0.153439172859
0.153439170816
0.153439166429
0.153439164964
0.153439162031
0.153439162669
0.153439164102
0.153439167701
0.153439164702
0.153439155819
0.153439153174
0.15343915621
0.153439154034