/*--------------------------------*- C++ -*----------------------------------*\
| =========                 |                                                 |
| \\      /  F ield         | OpenFOAM: The Open Source CFD Toolbox           |
|  \\    /   O peration     | Version:  v2012                                 |
|   \\  /    A nd           | Website:  www.openfoam.com                      |
|    \\/     M anipulation  |                                                 |
\*---------------------------------------------------------------------------*/
FoamFile
{
    version     2.0;
    format      ascii;
    class       volScalarField;
    location    "50000";
    object      omega;
}
// * * * * * * * * * * * * * * * * * * * * * * * * * * * * * * * * * * * * * //

dimensions      [0 0 -1 0 0 0 0];


internalField   nonuniform List<scalar> 
3200
(
457.397637539
457.397537965
457.397680844
457.397657956
457.397690467
457.397648034
457.397718887
457.39770115
457.397712095
457.397659026
457.397722998
457.397740977
457.397733182
457.39774275
457.39773801
457.397759953
457.397764899
457.397774789
457.397754114
457.397734328
457.397742653
457.397720602
457.397677199
457.39772548
457.3977103
457.397726263
457.397681941
457.397657017
457.397720547
457.397702395
457.397612312
457.397709261
212.642626084
212.64262141
212.642592194
212.642592239
212.642596964
212.64260986
212.642586293
212.642611935
212.642603146
212.642608114
212.642574337
212.64263592
212.642607656
212.642616165
212.642583366
212.64261096
212.642626091
212.642570509
212.642614557
212.642610153
212.642630525
212.642609183
212.642559565
212.64265512
212.642613065
212.642636152
212.642610856
212.642596757
212.642599319
212.642624447
212.642613397
212.642650754
131.670631531
131.670655583
131.670631965
131.670646451
131.670638118
131.670619098
131.670619122
131.670631942
131.670642341
131.670636017
131.670623137
131.670640893
131.670641749
131.670643276
131.670629251
131.670635813
131.670625867
131.670623618
131.670641285
131.670634635
131.670639556
131.670636032
131.670632376
131.670652459
131.670615626
131.670640853
131.670651859
131.670641811
131.670637231
131.670627985
131.670644826
131.67066461
93.5932402641
93.593258227
93.5932535944
93.5932608254
93.5932494371
93.5932469027
93.5932391875
93.5932526972
93.5932593278
93.593255046
93.5932557019
93.5932457026
93.5932451172
93.5932508483
93.5932477222
93.5932513096
93.5932382144
93.5932499695
93.593241201
93.5932466629
93.5932473364
93.5932461635
93.5932468549
93.5932379205
93.5932548063
93.5932501764
93.5932549584
93.5932594396
93.5932517466
93.593261341
93.593256223
93.5932695752
71.84480019
71.8448032071
71.8448050402
71.844807791
71.8448010372
71.8448006162
71.8447915436
71.8447984547
71.8448061865
71.8448092353
71.8447947379
71.8447957871
71.8448038966
71.8447986996
71.8447957202
71.844796368
71.8447969286
71.8448001474
71.8447971742
71.8447944852
71.8447863919
71.8448029578
71.8448026221
71.8448051888
71.8447961493
71.8448062806
71.844800104
71.8448107527
71.8448060192
71.84481018
71.8448081406
71.8448176702
57.8745462305
57.87455719
57.8745570767
57.8745519276
57.8745533994
57.8745454355
57.8745454648
57.8745378916
57.8745604269
57.8745495656
57.8745528071
57.8745407937
57.8745563953
57.8745521252
57.8745523566
57.8745473286
57.874549293
57.8745531396
57.8745469336
57.8745510993
57.8745504245
57.8745493361
57.8745557386
57.8745501613
57.8745445057
57.8745514926
57.8745494816
57.8745559427
57.874553745
57.8745577202
57.8745549855
57.8745619123
48.1760861424
48.1760833638
48.1760899134
48.1760883391
48.1760863629
48.1760852834
48.1760884586
48.1760900308
48.1760888173
48.1760901657
48.1760851048
48.1760881004
48.1760900744
48.1760878764
48.1760884998
48.1760887761
48.176085246
48.1760906026
48.1760877291
48.1760901536
48.1760925481
48.1760862953
48.17609364
48.1760891684
48.1760902326
48.1760892249
48.1760862598
48.1760927154
48.1760902673
48.1760939632
48.176091559
48.1760969704
41.0639691813
41.0639632959
41.0639680002
41.0639590281
41.0639672629
41.0639610436
41.0639678867
41.0639688884
41.0639690493
41.0639677944
41.063965905
41.0639675323
41.0639646738
41.0639687506
41.0639650304
41.0639631491
41.0639636608
41.0639689264
41.0639672999
41.0639706587
41.0639706438
41.0639667733
41.0639703358
41.0639728691
41.0639700302
41.0639681086
41.063966547
41.0639716159
41.0639688182
41.0639741391
41.0639718486
41.0639765525
35.6324027292
35.6324008578
35.6324037366
35.6323971137
35.6324049477
35.632399508
35.6324035386
35.6324043194
35.6323977768
35.6324048874
35.6324033758
35.6324039708
35.6323992942
35.6324042442
35.6324031807
35.6324047928
35.6324045206
35.6324061404
35.6324071864
35.6324042684
35.632405307
35.6324078019
35.6324024155
35.6324047309
35.6324036379
35.6324055274
35.632403907
35.6324064293
35.6324049028
35.6324091458
35.6324072774
35.6324112938
31.3527800266
31.352780062
31.3527820668
31.352779935
31.3527799573
31.3527796
31.3527807154
31.3527808277
31.3527816778
31.3527821667
31.3527826115
31.3527811001
31.3527830238
31.3527785546
31.352782873
31.3527835319
31.3527855777
31.3527846383
31.3527837049
31.3527824163
31.3527829257
31.3527827154
31.3527795828
31.3527805597
31.3527799455
31.3527822336
31.3527802589
31.3527827765
31.352781988
31.3527842778
31.3527832898
31.3527867883
27.8964360723
27.8964405467
27.896442477
27.8964413345
27.896436737
27.8964397192
27.8964362389
27.8964414685
27.896442674
27.896442964
27.8964438914
27.8964420616
27.8964438398
27.8964427957
27.8964435568
27.8964407158
27.8964467463
27.8964442401
27.8964439477
27.8964437062
27.8964437665
27.8964439572
27.8964397353
27.8964423423
27.8964425584
27.8964433389
27.8964411765
27.8964431542
27.8964413799
27.8964443386
27.8964436005
27.8964462939
25.0485529544
25.0485547974
25.0485560426
25.0485561712
25.0485542315
25.0485536195
25.0485551892
25.0485556814
25.04855661
25.0485571041
25.0485560944
25.0485557148
25.0485531527
25.0485578059
25.0485571991
25.0485529796
25.0485607134
25.0485557838
25.048557379
25.0485587178
25.048557537
25.0485564189
25.048557764
25.0485582696
25.0485564991
25.0485564196
25.0485560605
25.0485553675
25.0485516481
25.0485601769
25.0485577228
25.048559709
22.6628762081
22.6628794614
22.6628793247
22.662878046
22.6628767429
22.6628784617
22.6628774958
22.6628748964
22.6628793475
22.6628794043
22.6628800179
22.6628778791
22.6628805366
22.6628794671
22.6628792009
22.6628802205
22.6628813468
22.6628799386
22.6628784777
22.6628805263
22.6628814319
22.6628773704
22.6628816669
22.6628812824
22.662880628
22.6628786497
22.6628799188
22.6628795178
22.6628780239
22.6628815359
22.6628802993
22.6628825875
20.6364566881
20.6364586002
20.6364596778
20.6364593049
20.6364585852
20.6364596881
20.6364592371
20.6364601069
20.6364605628
20.6364602981
20.6364599484
20.6364575749
20.6364610517
20.6364592914
20.6364597878
20.6364608643
20.6364609489
20.6364599283
20.6364586058
20.6364606819
20.6364583964
20.6364633636
20.6364617569
20.6364607689
20.6364611559
20.6364602846
20.6364605975
20.6364590658
20.6364586194
20.6364617575
20.6364610846
20.6364632708
18.894750641
18.8947472821
18.8947504936
18.8947504549
18.8947504396
18.8947496888
18.8947505136
18.8947503993
18.8947516528
18.8947518676
18.8947507685
18.8947489781
18.8947531194
18.8947529048
18.8947526393
18.8947514645
18.8947514363
18.8947505689
18.8947500793
18.8947520808
18.8947520092
18.8947525456
18.8947530931
18.8947526478
18.8947493395
18.8947526799
18.8947524829
18.894751626
18.8947512387
18.8947527924
18.8947525338
18.8947545106
17.382461805
17.3824586004
17.3824643866
17.3824626883
17.3824621793
17.3824622296
17.3824622208
17.3824616255
17.3824625574
17.3824627269
17.3824597975
17.3824651046
17.3824644922
17.3824629759
17.3824636345
17.3824638387
17.3824634044
17.38246377
17.382462245
17.3824639331
17.3824642286
17.3824630325
17.3824639394
17.3824644174
17.3824640244
17.3824633151
17.3824644711
17.3824632106
17.3824634454
17.3824640588
17.3824636301
17.382465393
16.0577261231
16.0577265661
16.057727016
16.0577265895
16.0577273984
16.0577276087
16.0577263745
16.0577273785
16.0577277105
16.0577279723
16.0577270889
16.057728691
16.0577281963
16.057727799
16.0577291581
16.05772902
16.0577267061
16.0577286371
16.057728435
16.057728532
16.0577282164
16.0577291088
16.0577295202
16.0577290501
16.0577293939
16.0577294755
16.0577289602
16.0577291735
16.0577290459
16.0577292383
16.0577284828
16.0577299464
14.8882664625
14.8882671251
14.8882665911
14.8882664143
14.8882670132
14.8882671538
14.8882653196
14.8882678895
14.8882681007
14.8882682361
14.8882674699
14.8882684027
14.8882679773
14.8882679032
14.8882687274
14.8882687792
14.8882692032
14.888268732
14.8882690857
14.8882688428
14.8882681521
14.8882691974
14.8882695296
14.8882690456
14.8882692594
14.8882697988
14.8882665287
14.8882699604
14.8882693727
14.8882697033
14.8882688352
14.8882698828
13.8487989229
13.8487985087
13.8487958934
13.8487983617
13.8487965494
13.8487987294
13.8487972416
13.8488000265
13.8488000457
13.8487993891
13.8487985099
13.8487995022
13.8488000467
13.8488000271
13.8487997209
13.8487998629
13.8488003783
13.8488003742
13.8488003516
13.8487998583
13.8487993126
13.8488001842
13.8488007902
13.8488008582
13.848800431
13.8488008165
13.8487976581
13.8488016942
13.8488003502
13.848800868
13.8488004478
13.8488010507
12.9192374055
12.9192370369
12.9192359555
12.919237127
12.9192370107
12.919236121
12.9192379759
12.9192383933
12.919238517
12.9192382509
12.9192373221
12.9192375976
12.919238055
12.9192384998
12.9192387096
12.9192370246
12.9192390801
12.9192382732
12.9192386193
12.9192379551
12.9192375463
12.9192374352
12.9192392102
12.9192389995
12.9192372683
12.9192394031
12.9192361491
12.9192388047
12.9192375472
12.919238916
12.9192387273
12.9192394995
12.0834284337
12.0834283907
12.0834284043
12.0834285203
12.0834283837
12.0834279207
12.083428699
12.0834291047
12.0834292876
12.0834295171
12.0834278824
12.0834299532
12.0834298219
12.0834299154
12.0834295105
12.0834293217
12.0834293484
12.0834296928
12.0834295458
12.0834289124
12.0834288986
12.0834276184
12.0834305194
12.0834300423
12.083429774
12.0834295311
12.0834297579
12.0834298099
12.0834294228
12.083429644
12.0834297908
12.083430745
11.328231136
11.3282306513
11.3282304087
11.3282312054
11.3282311993
11.328231086
11.3282305813
11.3282309845
11.328232138
11.328232401
11.3282315201
11.3282324835
11.3282322412
11.3282325878
11.3282328598
11.3282327258
11.3282326035
11.3282326907
11.3282325045
11.3282320686
11.3282312431
11.3282314981
11.3282322585
11.3282324571
11.3282324192
11.3282329836
11.3282325988
11.3282321913
11.32823235
11.3282312395
11.3282326866
11.3282336292
10.6428472943
10.6428481658
10.6428479921
10.6428468414
10.6428485673
10.6428480358
10.642848831
10.6428491041
10.6428493018
10.6428492741
10.6428491039
10.6428487841
10.6428488265
10.642849198
10.6428496652
10.6428498694
10.6428484678
10.6428498355
10.6428495107
10.6428495626
10.6428495259
10.6428495044
10.6428495609
10.6428496408
10.6428498224
10.6428500708
10.6428484701
10.6428506553
10.6428500142
10.6428499476
10.6428485871
10.6428512053
10.0183241851
10.0183256279
10.0183254428
10.0183250337
10.0183255503
10.0183252571
10.0183260373
10.0183262374
10.018326598
10.0183263255
10.0183264459
10.0183264163
10.0183264716
10.0183255194
10.0183266306
10.0183270289
10.0183270288
10.0183271025
10.018326734
10.0183270486
10.018326889
10.0183269458
10.018326965
10.0183269713
10.0183270939
10.0183270192
10.0183271451
10.0183272405
10.018327394
10.018327179
10.0183273045
10.0183277402
9.44717483367
9.44717468356
9.44717488536
9.44717484874
9.44717482651
9.44717497329
9.4471751743
9.44717556414
9.44717557682
9.44717580554
9.44717480068
9.44717491219
9.4471759023
9.4471758771
9.44717609826
9.44717596585
9.44717601937
9.44717600591
9.4471758266
9.4471760823
9.44717601149
9.447175906
9.44717594136
9.44717614638
9.44717623794
9.44717532425
9.44717611155
9.44717637986
9.44717659891
9.44717664779
9.4471766741
9.44717684681
8.92308691243
8.92308731218
8.92308717297
8.92308721885
8.92308727538
8.9230874808
8.92308773501
8.92308794096
8.92308794879
8.92308784586
8.92308791295
8.92308727503
8.92308806621
8.92308766689
8.92308787956
8.92308809904
8.92308756072
8.92308807722
8.92308820321
8.92308751451
8.92308820606
8.92308824716
8.9230881323
8.92308831594
8.92308793329
8.92308826118
8.92308847178
8.92308847091
8.92308858994
8.92308771556
8.92308888109
8.9230890372
8.44070913405
8.44070892235
8.44070891607
8.44070827036
8.44070919332
8.44070920904
8.44070933081
8.4407095475
8.44070945611
8.44070944331
8.44070950844
8.44070964174
8.44070964044
8.44070962129
8.44070978174
8.44070954255
8.44070952194
8.44070983214
8.44070975749
8.44070980806
8.4407097843
8.44070979649
8.44070937026
8.4407098824
8.44070907461
8.44071035493
8.44071024577
8.44070936673
8.44071061484
8.44071034375
8.44071029604
8.44071069384
7.99546535738
7.99546516547
7.99546510395
7.99546521615
7.99546496948
7.9954644987
7.99546577849
7.99546566025
7.99546554829
7.99546554436
7.99546547776
7.99546568387
7.99546578098
7.99546515234
7.99546621047
7.99546560259
7.99546620156
7.99546607937
7.99546608016
7.99546601727
7.99546599406
7.99546606408
7.99546597435
7.99546610266
7.99546581442
7.99546624374
7.99546630173
7.99546634373
7.99546633627
7.99546558638
7.99546679847
7.99546683868
7.58342674974
7.58342660775
7.58342663338
7.58342661712
7.58342664853
7.58342672691
7.58342678605
7.5834268605
7.58342680719
7.58342696106
7.58342704396
7.58342667407
7.58342713844
7.58342713614
7.58342700671
7.58342748953
7.58342758352
7.58342750115
7.58342739065
7.58342738226
7.58342744936
7.58342745599
7.58342738298
7.58342757112
7.58342752032
7.58342748332
7.58342764266
7.58342781031
7.58342779812
7.5834277573
7.58342793896
7.58342809875
7.20119837184
7.20119829903
7.2011983002
7.20119835222
7.20119838638
7.2011984087
7.2011983599
7.201198292
7.20119782507
7.20119872413
7.20119801262
7.20119886941
7.20119881061
7.20119877102
7.20119854282
7.20119900469
7.20119914362
7.20119906802
7.20119899914
7.20119901933
7.20119896367
7.20119912921
7.20119909257
7.20119921311
7.20119916092
7.20119855588
7.20119943929
7.20119942377
7.20119933496
7.20119935819
7.20119935502
7.20119962775
6.84583144234
6.84583195616
6.84583196333
6.84583190928
6.84583193137
6.84583198546
6.84583200885
6.84583199982
6.84583202833
6.84583216881
6.84583217506
6.84583182301
6.84583233649
6.84583230488
6.84583181658
6.84583274769
6.84583270958
6.84583263195
6.84583254583
6.84583257151
6.84583243833
6.84583236748
6.84583271462
6.84583265513
6.84583270981
6.84583275446
6.84583281626
6.84583289806
6.84583246967
6.84583292712
6.84583268718
6.84583301334
6.51475426519
6.5147539404
6.51475471571
6.51475445811
6.51475458117
6.51475470306
6.51475471504
6.51475469894
6.51475477797
6.51475480965
6.51475483153
6.51475484275
6.5147549057
6.51475500222
6.51475505056
6.51475518277
6.51475525531
6.51475521722
6.51475518559
6.51475516029
6.51475518836
6.5147553702
6.51475528886
6.51475502748
6.5147553132
6.51475536418
6.51475544478
6.51475547044
6.51475545496
6.51475547719
6.5147554285
6.51475548298
6.20571073308
6.20571117459
6.20571118854
6.20571114732
6.20571117015
6.20571121242
6.20571124162
6.20571084125
6.20571131512
6.20571147131
6.2057114962
6.20571152529
6.20571112475
6.2057112813
6.2057116514
6.20571160777
6.20571174317
6.20571171678
6.20571169712
6.20571155855
6.20571182233
6.20571186254
6.20571175974
6.20571171969
6.20571178202
6.20571181923
6.20571186641
6.20571197442
6.20571146433
6.20571203202
6.20571195766
6.20571200524
5.91671601584
5.91671647489
5.91671641807
5.91671639169
5.9167164459
5.91671604685
5.91671661283
5.91671649121
5.91671613083
5.9167167974
5.91671673973
5.91671673144
5.9167163416
5.91671680774
5.9167168223
5.91671687013
5.9167168559
5.91671683964
5.91671689565
5.91671649999
5.91671703462
5.91671702471
5.91671703312
5.91671661736
5.91671714356
5.91671711262
5.9167171007
5.91671716256
5.91671708588
5.91671687621
5.91671712629
5.91671711284
5.646016052
5.64601595399
5.64601572449
5.64601619709
5.64601612259
5.64601610192
5.64601617638
5.64601620675
5.64601597775
5.64601632808
5.6460161131
5.64601637292
5.64601631164
5.64601634313
5.64601640207
5.64601640914
5.6460164732
5.64601637711
5.64601652601
5.64601648952
5.64601649835
5.64601653174
5.64601656893
5.64601655676
5.64601667603
5.64601665488
5.64601667896
5.64601673042
5.6460165793
5.64601669211
5.64601671327
5.64601669114
5.39205404602
5.39205398241
5.39205398227
5.39205399917
5.39205402956
5.39205410806
5.3920541117
5.39205421648
5.39205394796
5.39205438335
5.39205432212
5.39205427562
5.3920541355
5.39205437931
5.39205437164
5.392054319
5.39205441773
5.39205418627
5.39205447532
5.39205448066
5.39205449563
5.3920545106
5.39205456725
5.39205458495
5.39205462652
5.39205471383
5.39205465255
5.39205475965
5.39205469367
5.39205440079
5.39205474513
5.39205465811
5.15344534508
5.15344529599
5.15344529418
5.1534452942
5.15344531342
5.15344535996
5.15344543415
5.15344540698
5.15344550549
5.15344557688
5.15344551954
5.15344555067
5.15344556807
5.15344561169
5.15344535299
5.15344573629
5.15344571805
5.15344571683
5.15344561953
5.15344577589
5.15344578775
5.15344560431
5.15344590396
5.15344589152
5.15344583988
5.15344603185
5.15344604265
5.15344599797
5.15344581384
5.15344596456
5.15344594161
5.15344589287
4.92895307534
4.928953043
4.92895305811
4.92895309461
4.92895308534
4.92895305974
4.92895292806
4.92895324211
4.92895323812
4.92895322995
4.92895322569
4.92895303626
4.92895333735
4.92895329246
4.92895324488
4.92895336616
4.92895337799
4.92895339366
4.9289533936
4.92895341723
4.92895341997
4.9289532582
4.92895362815
4.92895364332
4.92895340821
4.92895371965
4.92895368576
4.92895367853
4.9289536935
4.92895363651
4.92895358622
4.92895353679
4.71746914505
4.71746931545
4.71746930311
4.71746933517
4.71746932101
4.71746930923
4.71746933354
4.71746937419
4.71746937519
4.71746936547
4.71746937781
4.71746941053
4.71746938819
4.71746925167
4.71746952411
4.71746951237
4.71746947122
4.71746944668
4.71746936406
4.71746964122
4.71746963602
4.71746965527
4.71746971309
4.71746970937
4.71746971322
4.71746974917
4.71746979721
4.71746973198
4.71746980606
4.717469788
4.71746976831
4.71746970602
4.51799842677
4.51799854354
4.51799853534
4.51799856923
4.51799858368
4.51799848109
4.51799861528
4.51799858413
4.5179985688
4.51799856746
4.51799862258
4.51799862241
4.51799865158
4.51799860256
4.51799868182
4.51799867244
4.51799867044
4.51799856786
4.51799877364
4.51799881808
4.51799883944
4.51799882991
4.51799889851
4.51799889535
4.51799889692
4.51799891659
4.51799894783
4.51799892857
4.51799889983
4.51799887948
4.51799895697
4.51799889542
4.32964396786
4.32964393765
4.32964394604
4.3296439707
4.32964401183
4.32964389033
4.32964403687
4.3296439973
4.32964390611
4.32964406128
4.32964405167
4.32964405204
4.32964405853
4.32964407106
4.32964405781
4.32964397318
4.3296441456
4.32964415296
4.32964404965
4.32964421105
4.32964418583
4.32964409791
4.32964426853
4.32964426183
4.32964426586
4.32964428726
4.32964429528
4.32964431386
4.32964419921
4.32964434895
4.3296443378
4.32964426729
4.15159547085
4.15159544932
4.1515954498
4.15159542064
4.1515955063
4.15159550708
4.15159550801
4.15159550724
4.15159553003
4.15159554804
4.15159554379
4.15159554252
4.15159555379
4.15159556997
4.15159557482
4.15159558103
4.15159559755
4.15159561384
4.15159562891
4.15159565554
4.15159566187
4.15159566126
4.15159567609
4.15159569881
4.15159572455
4.15159572728
4.15159566152
4.15159576461
4.15159576707
4.15159577395
4.15159577354
4.15159571652
3.98311931453
3.98311935597
3.98311934299
3.98311929456
3.98311938437
3.98311938258
3.98311938417
3.9831193996
3.98311941607
3.98311942166
3.9831194244
3.98311942278
3.98311942022
3.98311942084
3.98311942769
3.98311943785
3.98311945767
3.98311947901
3.98311942067
3.98311950789
3.98311950951
3.9831195181
3.98311952686
3.98311953409
3.98311953376
3.98311952931
3.98311949338
3.98311948541
3.98311959009
3.98311958524
3.98311958162
3.98311954626
3.82354958918
3.82354960132
3.82354956097
3.82354961717
3.82354961568
3.82354961978
3.82354962333
3.82354962873
3.82354964052
3.82354963739
3.82354961401
3.82354966614
3.82354965623
3.82354964912
3.82354965023
3.82354965358
3.8235496359
3.82354970834
3.82354971115
3.82354971133
3.82354971389
3.82354971972
3.82354973078
3.8235497357
3.82354973892
3.82354974549
3.82354973824
3.82354971157
3.82354977749
3.82354977013
3.82354976654
3.82354974151
3.67228030469
3.67228029465
3.67228029318
3.67228028852
3.67228027055
3.67228030567
3.67228030485
3.67228030632
3.67228031391
3.67228032477
3.67228033314
3.67228033765
3.67228034013
3.67228033501
3.67228032827
3.67228031028
3.67228035016
3.67228035963
3.67228036942
3.67228037383
3.67228037671
3.67228038064
3.67228038449
3.67228038794
3.67228039498
3.67228039116
3.67228037024
3.67228040545
3.67228040677
3.67228038442
3.67228041261
3.67228038817
3.52875893185
3.52875893087
3.52875892868
3.52875892892
3.52875893367
3.52875893837
3.52875893835
3.52875893654
3.52875893362
3.5287589273
3.52875894055
3.52875894128
3.52875894076
3.52875894198
3.52875894644
3.52875895023
3.52875895289
3.52875895129
3.52875895828
3.52875896052
3.52875896183
3.52875897418
3.5287589769
3.5287589751
3.52875897754
3.52875897569
3.52875897686
3.52875897735
3.52875897799
3.52875897817
3.52875897757
3.52875896784
3.39248070084
3.39248070079
3.39248070213
3.39248070452
3.39248070586
3.39248070916
3.39248070943
3.39248070947
3.39248070617
3.39248070307
3.39248070082
3.39248069976
3.39248069804
3.392480697
3.39248069561
3.39248069594
3.39248069746
3.39248069806
3.39248069969
3.39248070349
3.39248070664
3.39248071024
3.39248070842
3.39248070939
3.39248070813
3.39248070181
3.39248070018
3.39248069746
3.39248069622
3.392480695
3.3924806942
3.39248069522
3.2629835191
3.26298351234
3.26298351604
3.26298352277
3.26298350878
3.26298350836
3.26298350895
3.26298350839
3.26298349926
3.26298349551
3.26298349149
3.26298349089
3.26298348866
3.26298348616
3.26298348583
3.26298348334
3.26298348387
3.26298348349
3.26298348556
3.26298349016
3.26298349531
3.26298349778
3.26298349964
3.26298350075
3.26298350487
3.2629834787
3.26298347712
3.26298347309
3.26298346848
3.26298346483
3.26298346127
3.26298347431
3.13984357391
3.13984358034
3.13984357945
3.13984357329
3.13984358426
3.13984355086
3.13984355438
3.13984356505
3.13984352743
3.13984352331
3.13984351278
3.13984349891
3.13984349793
3.13984349709
3.13984349617
3.13984350365
3.13984351855
3.13984352433
3.13984352939
3.13984354472
3.1398435502
3.13984355049
3.13984354604
3.13984354077
3.13984354397
3.13984349512
3.1398434872
3.13984349096
3.13984346941
3.13984348372
3.13984346494
3.13984349812
3.02267147139
3.02267147928
3.02267147703
3.0226714644
3.02267144715
3.02267142959
3.02267142235
3.02267142081
3.02267141547
3.02267141049
3.02267141514
3.02267137654
3.0226713946
3.02267136248
3.02267136872
3.02267139692
3.02267146506
3.02267144673
3.02267142849
3.02267144644
3.02267150837
3.02267147717
3.02267143688
3.02267139943
3.02267136646
3.02267134055
3.02267135026
3.02267130548
3.02267130035
3.02267129823
3.02267129614
3.02267134836
2.91110872138
2.91110870158
2.91110870925
2.91110869509
2.91110867661
2.91110865685
2.91110863792
2.91110863419
2.91110863968
2.91110863033
2.91110861455
2.91110863146
2.91110858419
2.91110858248
2.9111085736
2.91110856103
2.91110854741
2.91110854167
2.91110854013
2.91110853551
2.91110855375
2.91110855454
2.91110854325
2.9111085312
2.91110850958
2.91110849354
2.91110850143
2.91110847362
2.91110848672
2.91110849107
2.91110849734
2.91110855946
2.80482494922
2.80482493356
2.8048249426
2.80482492575
2.80482490466
2.80482487955
2.8048248765
2.80482486569
2.8048248559
2.80482484576
2.80482482771
2.80482482236
2.80482481476
2.80482479415
2.80482478279
2.80482476359
2.80482478282
2.80482474557
2.8048247533
2.80482475167
2.80482476536
2.80482469966
2.80482469392
2.80482469462
2.80482469073
2.80482468654
2.80482468728
2.80482468355
2.80482468386
2.80482468024
2.80482468547
2.80482476283
2.70351531791
2.70351530269
2.70351531316
2.7035152986
2.70351527419
2.70351524962
2.70351524019
2.70351522851
2.703515217
2.70351521704
2.70351522337
2.70351522474
2.70351522055
2.70351513548
2.7035151211
2.7035151136
2.70351511142
2.70351509865
2.70351508144
2.70351506063
2.70351506882
2.70351505226
2.70351501651
2.70351504824
2.70351499838
2.70351500463
2.70351499949
2.70351497969
2.70351499337
2.70351500021
2.70351501625
2.70351510846
2.60689783456
2.60689784749
2.60689785263
2.60689784958
2.60689782792
2.60689780753
2.60689778652
2.60689776711
2.60689774651
2.60689772397
2.60689770273
2.60689769502
2.6068976806
2.60689766246
2.60689763979
2.60689762061
2.60689761998
2.60689762025
2.60689761275
2.6068975391
2.60689752994
2.60689752171
2.6068975288
2.60689751512
2.60689750133
2.60689748595
2.60689748501
2.60689743879
2.60689744448
2.60689744916
2.60689748331
2.60689760423
2.51471144543
2.51471145276
2.51471144995
2.51471143923
2.51471141392
2.51471138956
2.51471138265
2.51471137949
2.51471136514
2.51471136064
2.51471129193
2.51471128839
2.51471127011
2.51471124507
2.51471122181
2.51471120521
2.51471118323
2.51471118531
2.51471113687
2.51471114487
2.51471115384
2.51471109848
2.51471110811
2.5147111047
2.51471109205
2.51471109401
2.51471102772
2.51471103751
2.51471102948
2.51471102578
2.51471106675
2.51471119739
2.426714119
2.42671412498
2.42671412026
2.42671410621
2.42671407685
2.42671404513
2.42671402286
2.42671402332
2.42671402904
2.42671397113
2.42671397317
2.42671395777
2.42671393899
2.42671391392
2.4267138889
2.42671386239
2.4267138337
2.42671380395
2.42671377549
2.42671374809
2.42671372375
2.42671370018
2.4267136799
2.42671368567
2.42671369014
2.4267136949
2.42671369691
2.42671367752
2.42671367316
2.42671368268
2.42671371279
2.42671385363
2.34268120819
2.34268121196
2.34268120916
2.34268120125
2.34268117608
2.34268114726
2.34268112184
2.34268111352
2.34268109841
2.34268108212
2.34268109636
2.34268109543
2.34268106997
2.34268103688
2.34268100357
2.34268097092
2.34268093815
2.34268090767
2.34268088341
2.34268086424
2.34268079164
2.34268078444
2.34268076924
2.34268077208
2.34268077143
2.34268075821
2.34268074503
2.34268071597
2.34268070581
2.34268071916
2.34268076251
2.34268092135
2.26240394673
2.26240391833
2.26240392695
2.26240392967
2.26240394598
2.26240392849
2.26240392032
2.26240391661
2.26240390075
2.26240388757
2.26240387968
2.26240386993
2.2624038441
2.26240381538
2.26240378309
2.26240375059
2.26240371841
2.26240368684
2.26240365444
2.26240362059
2.26240359401
2.26240356673
2.26240353869
2.26240351182
2.26240348504
2.26240346345
2.26240344186
2.26240341796
2.26240339132
2.2624034232
2.26240348504
2.26240366886
2.18568821967
2.18568822218
2.1856882097
2.18568819046
2.18568814811
2.18568810377
2.18568810292
2.18568809867
2.18568807798
2.18568807609
2.18568808164
2.18568807139
2.18568806307
2.18568804263
2.18568801051
2.18568797812
2.18568794574
2.18568791451
2.18568788531
2.18568785705
2.18568782835
2.18568779891
2.1856877684
2.18568773769
2.18568770949
2.18568768564
2.18568766219
2.18568762818
2.18568761872
2.18568764459
2.18568771098
2.18568790357
2.11235304459
2.1123530266
2.11235304161
2.11235302922
2.11235300049
2.11235296501
2.11235293131
2.11235291689
2.11235290142
2.11235289952
2.11235292693
2.11235292994
2.11235290012
2.11235286282
2.1123528277
2.11235279535
2.11235276445
2.11235273505
2.11235270729
2.11235268006
2.1123526518
2.11235262375
2.11235259504
2.1123525645
2.11235254104
2.11235252499
2.11235250294
2.11235246686
2.11235245534
2.11235248341
2.11235255518
2.11235276655
2.04222993661
2.04222994046
2.04222992576
2.04222988939
2.04222984253
2.04222981876
2.04222982705
2.04222981783
2.04222978559
2.04222975277
2.04222972612
2.04222969938
2.04222967363
2.04222964766
2.0422296204
2.04222959172
2.04222956268
2.04222953646
2.04222951287
2.04222948718
2.04222944828
2.04222943728
2.04222945034
2.04222943468
2.04222940598
2.04222937171
2.04222933495
2.04222929259
2.04222927895
2.04222930614
2.04222938184
2.04222959803
1.97516141269
1.97516139809
1.97516141232
1.97516139436
1.975161364
1.9751613534
1.97516135059
1.97516132434
1.97516128973
1.97516125642
1.97516122438
1.97516119367
1.97516116465
1.97516113642
1.9751611079
1.97516107539
1.97516106043
1.97516106757
1.97516105597
1.97516102016
1.97516098094
1.97516094781
1.975160916
1.97516088542
1.97516085515
1.97516082395
1.97516079118
1.97516075002
1.97516073809
1.97516077346
1.97516086361
1.975161108
1.91100071969
1.91100070435
1.91100071874
1.91100070404
1.91100067993
1.91100065234
1.91100062413
1.91100059632
1.91100056797
1.91100053916
1.91100050994
1.91100048063
1.91100045121
1.91100042177
1.91100039212
1.91100036057
1.91100033111
1.91100030563
1.91100027967
1.9110002524
1.9110002239
1.91100019425
1.91100016414
1.91100013415
1.91100010396
1.91100007317
1.91100003856
1.91100002575
1.91100003852
1.91100006594
1.91100015906
1.91100041408
1.84961055547
1.84961054019
1.8496105541
1.84961054028
1.84961051867
1.84961049101
1.84961046051
1.84961043007
1.84961039943
1.84961036889
1.8496103387
1.84961030858
1.84961027818
1.84961024735
1.84961021593
1.84961018435
1.84961015343
1.84961012345
1.84961009395
1.84961006428
1.84961003434
1.84961000402
1.84960997353
1.84960994285
1.84960991187
1.8496098797
1.84960984129
1.84960982782
1.84960984177
1.84960987411
1.84960997518
1.8496102427
1.79086260964
1.79086259989
1.79086261435
1.7908626022
1.79086258226
1.7908625556
1.79086252571
1.79086249561
1.79086246546
1.79086243533
1.79086240488
1.79086237401
1.79086234294
1.79086231186
1.79086228079
1.79086224966
1.79086221847
1.79086218721
1.79086215587
1.79086212438
1.79086209302
1.79086206214
1.79086203132
1.79086200037
1.79086196917
1.790861937
1.79086190149
1.79086185868
1.79086184689
1.79086189295
1.79086200519
1.79086228707
1.73463695663
1.73463696391
1.73463694193
1.73463691732
1.73463688903
1.73463685652
1.7346368252
1.73463679369
1.73463676252
1.73463673163
1.73463670059
1.7346366692
1.73463663753
1.73463660597
1.73463657454
1.7346365431
1.73463651146