/*--------------------------------*- C++ -*----------------------------------*\
| =========                 |                                                 |
| \\      /  F ield         | OpenFOAM: The Open Source CFD Toolbox           |
|  \\    /   O peration     | Version:  v2012                                 |
|   \\  /    A nd           | Website:  www.openfoam.com                      |
|    \\/     M anipulation  |                                                 |
\*---------------------------------------------------------------------------*/
FoamFile
{
    version     2.0;
    format      ascii;
    class       surfaceScalarField;
    location    "50000";
    object      phi;
}
// * * * * * * * * * * * * * * * * * * * * * * * * * * * * * * * * * * * * * //

dimensions      [0 3 -1 0 0 0 0];
oriented        oriented;


internalField   nonuniform List<scalar> 
6268
(
0.000339226868866
4.1115608918e-11
0.0003392268864
-1.75229735969e-11
0.000339226961244
-7.48490656877e-11
0.000339226977814
-1.65684228093e-11
0.000339226988072
-1.02734041338e-11
0.000339227008662
-2.0569565634e-11
0.00033922701981
-1.11627131702e-11
0.000339227010323
9.48164377456e-12
0.000339226994953
1.53628493071e-11
0.000339227019499
-2.45399052881e-11
0.00033922701833
1.16258317707e-12
0.000339227000042
1.8290514313e-11
0.000339227045831
-4.57925107467e-11
0.000339227066387
-2.05630729619e-11
0.000339227052223
1.41598134952e-11
0.000339227067576
-1.53498375531e-11
0.000339227076193
-8.60881480299e-12
0.000339227094211
-1.80207039125e-11
0.000339227070012
2.41989103775e-11
0.000339227058924
1.10834344689e-11
0.000339227070401
-1.14919284958e-11
0.000339227033288
3.71160639306e-11
0.000339227002327
3.09711849068e-11
0.000339226964141
3.81776543929e-11
0.000339226937253
2.68875166172e-11
0.000339226919235
1.80176068555e-11
0.000339226940451
-2.1221723658e-11
0.000339226989869
-4.94271787682e-11
0.000339227003272
-1.34009029424e-11
0.000339226993691
9.58631033431e-12
0.000339226961385
3.23136135295e-11
5.13930740667e-11
0.000622126294392
4.42989160712e-11
0.000622126294476
-1.76040320964e-11
0.000622126282701
-6.30699015852e-11
0.000622126310548
-4.43895888998e-11
0.00062212634519
-4.49442550314e-11
0.000622126372857
-4.82176730496e-11
0.000622126397369
-3.56620027781e-11
0.000622126397846
9.01974818742e-12
0.000622126387931
2.52632189918e-11
0.000622126378047
-1.46425537704e-11
0.000622126355902
2.33118043837e-11
0.000622126379292
-5.10570807736e-12
0.000622126440393
-1.06908539596e-10
0.000622126448489
-2.86575479741e-11
0.000622126448948
1.37039335091e-11
0.000622126451851
-1.82611469849e-11
0.000622126440855
2.39186499525e-12
0.00062212642547
-2.63784653131e-12
0.000622126411187
3.84781305252e-11
0.000622126387152
3.51321692836e-11
0.000622126370227
5.44654874013e-12
0.000622126375132
3.22003060761e-11
0.000622126332404
7.37056336913e-11
0.000622126312619
5.79695868768e-11
0.000622126324171
1.53408705058e-11
0.000622126338017
4.17328947769e-12
0.000622126352539
-3.57371344397e-11
0.000622126343972
-4.08738661801e-11
0.00062212633604
-5.44321005143e-12
0.000622126315043
3.05683716194e-11
0.000622126306556
4.08099514787e-11
6.03595587582e-11
0.000800272201053
3.89633554378e-11
0.000800272188377
-4.91671647183e-12
0.000800272170985
-4.56824927128e-11
0.000800272189705
-6.31045824593e-11
0.000800272229866
-8.51217021375e-11
0.000800272237628
-5.59790874195e-11
0.00080027221346
-1.14951031347e-11
0.000800272222959
-4.84940255401e-13
0.000800272240562
7.6563615068e-12
0.000800272233167
-7.25465106663e-12
0.00080027228005
-2.35767684794e-11
0.000800272337358
-6.24017363277e-11
0.000800272257789
-2.73504061311e-11
0.000800272232164
-3.04554760022e-12
0.000800272267711
-2.18359767124e-11
0.000800272265993
-1.65497326619e-11
0.000800272265574
2.80812681101e-12
0.000800272254617
8.31167835011e-12
0.000800272243316
4.97706144112e-11
0.000800272263425
1.50304278803e-11
0.000800272252119
1.67578659592e-11
0.000800272216866
6.74599881259e-11
0.00080027222909
6.14853506635e-11
0.000800272228581
5.84750761941e-11
0.000800272238053
5.86829075278e-12
0.000800272263796
-2.15819645763e-11
0.000800272250166
-2.21064588559e-11
0.000800272226534
-1.72402425596e-11
0.000800272218429
2.66497891102e-12
0.000800272233528
1.54656384929e-11
0.000800272216399
5.79424177447e-11
8.10391546065e-11
0.000940339819488
3.3070339708e-11
0.000940339829406
-1.4851413227e-11
0.000940339802572
-1.88565916049e-11
0.000940339812153
-7.26820585409e-11
0.000940339823556
-9.65226109142e-11
0.00094033980036
-3.27898778279e-11
0.000940339819916
-3.10514777245e-11
0.000940339827838
-8.39578542588e-12
0.00094033984276
-7.26607576515e-12
0.000940339877734
-4.22309046665e-11
0.000940339887988
-3.38350118464e-11
0.000940339869258
-4.36772783026e-11
0.000940339854371
-1.24617335344e-11
0.000940339846498
4.82204883624e-12
0.000940339840656
-1.60027643817e-11
0.000940339832552
-8.44942321089e-12
0.000940339834183
1.1722759647e-12
0.000940339825979
1.6511128796e-11
0.000940339832344
4.34032841599e-11
0.000940339827126
2.02360660371e-11
0.000940339814104
2.97766087995e-11
0.000940339782517
9.90533498972e-11
0.000940339792973
5.10305983946e-11
0.000940339817312
3.41392664765e-11
0.000940339828429
-5.2507136897e-12
0.000940339863608
-5.67672564129e-11
0.000940339859479
-1.79774658835e-11
0.000940339817153
2.50860649419e-11
0.000940339815251
4.56441296023e-12
0.000940339785712
4.50022087203e-11
0.000940339788041
5.56162280169e-11
5.54907234585e-11
0.00106120642537
2.87383874309e-11
0.00106120640722
3.29437384531e-12
0.00106120641553
-2.71768785618e-11
0.00106120639912
-5.62704221234e-11
0.00106120636264
-6.00418795311e-11
0.0010612063708
-4.09467999275e-11
0.00106120637641
-3.66637861245e-11
0.00106120638477
-1.6759543309e-11
0.00106120639064
-1.3150838409e-11
0.00106120637694
-2.8522162954e-11
0.00106120637642
-3.33251267768e-11
0.00106120634509
-1.23406551553e-11
0.00106120633213
4.90145601117e-13
0.00106120638386
-4.69177498986e-11
0.00106120639176
-2.38953447699e-11
0.00106120637069
1.26051588068e-11
0.00106120635824
1.3621761918e-11
0.00106120634207
3.26789300831e-11
0.00106120634185
4.36110917209e-11
0.00106120630364
5.84588428759e-11
0.00106120629189
4.15275581211e-11
0.00106120635508
3.58596063423e-11
0.00106120636016
4.59482781277e-11
0.0010612063645
2.97962180255e-11
0.00106120637595
-1.66876749754e-11
0.00106120640182
-8.26446120978e-11
0.00106120642829
-4.44496851967e-11
0.0010612064134
3.99862631431e-11
0.00106120639976
1.82100414326e-11
0.00106120640372
4.10419044016e-11
0.0010612064024
5.69326337354e-11
3.68509847159e-11
0.00117129350385
2.91486313769e-11
0.00117129349124
1.58971747853e-11
0.00117129346984
-5.79095204161e-12
0.00117129339743
1.61345705643e-11
0.00117129333253
4.85849950361e-12
0.00117129338802
-9.64385976794e-11
0.00117129342009
-6.87400014957e-11
0.00117129342774
-2.44003532485e-11
0.00117129344269
-2.81023767611e-11
0.00117129340336
1.08133473195e-11
0.00117129335912
1.09057877171e-11
0.00117129338638
-3.95999557211e-11
0.00117129342271
-3.58429181928e-11
0.0011712934229
-4.71276824592e-11
0.00117129341433
-1.53275707571e-11
0.0011712934109
1.60382633125e-11
0.00117129339356
3.09274267815e-11
0.00117129336507
6.11912380645e-11
0.00117129337261
3.60680477826e-11
0.00117129339235
3.87212372002e-11
0.0011712933901
4.37815478935e-11
0.0011712933757
5.02596979787e-11
0.00117129337147
5.01834755238e-11
0.00117129340956
-8.29981384448e-12
0.00117129342723
-3.43510605878e-11
0.00117129339372
-4.91283474724e-11
0.00117129339802
-4.87591039872e-11
0.001171293472
-3.39900850914e-11
0.00117129348735
2.86160027041e-12
0.00117129349773
3.06663521983e-11
0.00117129350476
4.99110292749e-11
3.73493556755e-11
0.00127503648187
1.84700444188e-11
0.00127503647549
2.22745867374e-11
0.00127503640902
6.06769201999e-11
0.00127503639129
3.38615132611e-11
0.00127503642809
-3.19355009945e-11
0.00127503636889
-3.72458102969e-11
0.00127503632899
-2.8837839017e-11
0.00127503636294
-5.83522460017e-11
0.00127503637458
-3.97491940675e-11
0.00127503638202
3.37135168826e-12
0.00127503638066
1.22657672843e-11
0.00127503636551
-2.44560093626e-11
0.00127503636144
-3.1780190344e-11
0.00127503637066
-5.63547886117e-11
0.00127503639239
-3.70671975284e-11
0.00127503639302
1.54199558155e-11
0.00127503639279
3.11521404858e-11
0.00127503640488
4.90969837148e-11
0.00127503632994
1.11011652269e-10
0.00127503629777
7.08896497924e-11
0.00127503633789
3.65547731452e-12
0.00127503636402
2.41263989058e-11
0.00127503639033
2.38683527093e-11
0.00127503640672
-2.46927707431e-11
0.00127503641685
-4.4481260456e-11
0.00127503644534
-7.76126612964e-11
0.0012750364539
-5.7314438636e-11
0.00127503644932
-2.94114077632e-11
0.00127503647817
-2.59872169784e-11
0.00127503648028
2.85571075484e-11
0.0012750364719
5.829369356e-11
3.80520251417e-11
0.00137505262428
9.00698174326e-12
0.00137505264904
-2.48387207374e-12
0.00137505265306
5.66600484467e-11
0.00137505265398
3.29373296422e-11
0.00137505263203
-9.98776033045e-12
0.00137505259064
4.14212685629e-12
0.00137505257995
-1.81443508629e-11
0.00137505258466
-6.30559219417e-11
0.00137505258084
-3.59276894566e-11
0.00137505258058
3.63671996731e-12
0.00137505256285
2.9987220535e-11
0.00137505253952
-1.1387479952e-12
0.00137505253254
-2.4790946494e-11
0.00137505253762
-6.14327318421e-11
0.00137505253644
-3.58990408431e-11
0.00137505252474
2.71175313327e-11
0.00137505252843
2.74480330454e-11
0.0013750525658
1.17262097023e-11
0.00137505256319
1.13610549545e-10
0.0013750525166
1.17485858926e-10
0.00137505247931
4.09542959481e-11
0.00137505251098
-7.53853354079e-12
0.00137505258453
-4.9677495213e-11
0.00137505259673
-3.68959234959e-11
0.00137505259524
-4.3001728515e-11
0.0013750525498
-3.21584358552e-11
0.00137505255162
-5.9124173565e-11
0.00137505262205
-9.98556356346e-11
0.00137505261552
-1.94565554498e-11
0.00137505260368
4.03975258802e-11
0.00137505262562
3.63521572108e-11
4.88428523137e-11
0.00147302166463
5.95784491154e-11
0.00147302166035
1.79286419416e-12
0.00147302171897
-1.96245838192e-12
0.0014730217384
1.3510954888e-11
0.00147302172829
1.32534505126e-13
0.00147302173705
-4.61761805516e-12
0.00147302175263
-3.37288264144e-11
0.00147302173198
-4.23985175522e-11
0.00147302169875
-2.70632807422e-12
0.00147302169315
9.24315433389e-12
0.00147302171505
8.0980406543e-12
0.00147302169944
1.44730798785e-11
0.00147302167645
-1.80172959479e-12
0.00147302159265
2.23589132327e-11
0.00147302156953
-1.27811723109e-11
0.00147302160105
-4.39751537474e-12
0.00147302156149
6.70043784197e-11
0.00147302152801
4.5204329709e-11
0.00147302158557
5.6050219777e-11
0.0014730216725
3.05544215713e-11
0.00147302172774
-1.42873151341e-11
0.00147302174056
-2.03589518021e-11
0.00147302172437
-3.34911635298e-11
0.00147302173199
-4.45052150055e-11
0.00147302173951
-5.05194220808e-11
0.00147302175785
-5.05041182468e-11
0.00147302174173
-4.30011205655e-11
0.00147302170154
-5.96580049201e-11
0.00147302173794
-5.58461872914e-11
0.00147302176719
1.11378599917e-11
0.0014730217375
6.60423694433e-11
7.11337805907e-11
0.00157009514182
4.2070113413e-11
0.00157009514662
-3.00526804324e-12
0.0015700951356
9.05556401541e-12
0.00157009512656
2.25533980518e-11
0.00157009510076
2.59279917183e-11
0.00157009509393
2.22066832865e-12
0.00157009506794
-7.73356761794e-12
0.00157009503712
-1.15708489893e-11
0.0015700950709
-3.64835260491e-11
0.00157009509585
-1.57066320595e-11
0.00157009511035
-6.4012652674e-12
0.00157009511165
1.31743194846e-11
0.00157009507412
3.57309703004e-11
0.00157009502844
6.80440943185e-11
0.00157009495228
6.33670363133e-11
0.00157009495043
-2.54485763939e-12
0.00157009499291
2.45202329075e-11
0.00157009498584
5.22731521535e-11
0.00157009501668
2.52167609802e-11
0.00157009505108
-3.84949441897e-12
0.00157009507456
-3.77661423886e-11
0.00157009507686
-2.26648589675e-11
0.00157009508446
-4.10988620048e-11
0.00157009509149
-5.15238745137e-11
0.0015700950765
-3.55277927235e-11
0.00157009507689
-5.08911183427e-11
0.00157009509347
-5.95835752594e-11
0.00157009508453
-5.07127980483e-11
0.00157009512612
-9.74355518055e-11
0.00157009513735
-9.64686714122e-14
0.00157009511405
8.93437452523e-11
6.08726004911e-11
0.0016671056279
3.25417837515e-11
0.00166710562909
-4.19286489251e-12
0.00166710564607
-7.9215155983e-12
0.00166710564475
2.38822793435e-11
0.00166710563381
3.68695712715e-11
0.00166710561167
2.43538035683e-11
0.00166710559506
8.87566586318e-12
0.00166710556103
2.24629083464e-11
0.00166710555213
-2.75751502361e-11
0.00166710558952
-5.31070998754e-11
0.0016671055789
4.2248742024e-12
0.00166710553544
5.66376868573e-11
0.00166710548786
8.33077059727e-11
0.00166710548336
7.25488305306e-11
0.00166710549453
5.21925109194e-11
0.00166710545717
3.48083775735e-11
0.00166710545434
2.73470020416e-11
0.0016671054873
1.93087918774e-11
0.00166710549705
1.5471321327e-11
0.00166710550873
-1.55305050234e-11
0.00166710547236
-1.39469437859e-12
0.0016671054744
-2.4703387936e-11
0.00166710550984
-7.65455618768e-11
0.00166710552356
-6.52481235478e-11
0.00166710554449
-5.64461731809e-11
0.00166710554329
-4.96835193426e-11
0.00166710553398
-5.02750378634e-11
0.00166710551493
-3.16619540263e-11
0.00166710548221
-6.47103999568e-11
0.00166710552721
-4.50873498116e-11
0.00166710559062
2.59218235032e-11
3.3127272723e-11
0.0017646838896
4.76618360883e-12
0.00176468389227
-6.8573109864e-12
0.0017646838932
-8.85170230705e-12
0.00176468390114
1.59409823669e-11
0.00176468390199
3.60321845413e-11
0.00176468387916
4.71813639696e-11
0.00176468386631
2.17310216855e-11
0.0017646838723
1.64723844195e-11
0.00176468386498
-2.02535833877e-11
0.00176468383548
-2.36062803724e-11
0.00176468380824
3.14646150819e-11
0.00176468381245
5.24196761441e-11
0.00176468380013
9.56299745728e-11
0.0017646837867
8.59850979222e-11
0.00176468376344
7.54469897187e-11
0.00176468375357
4.46702583172e-11
0.0017646837464
3.45182299418e-11
0.00176468374319
2.25172867103e-11
0.00176468377057
-1.1909431574e-11
0.00176468376422
-9.16684933776e-12
0.0017646837521
1.07187717384e-11
0.00176468375457
-2.71716452002e-11
0.00176468376668
-8.86614452912e-11
0.00176468378974
-8.83103717484e-11
0.00176468379784
-6.45372016914e-11
0.00176468379088
-4.27220333366e-11
0.0017646837774
-3.67920903317e-11
0.00176468375526
-9.50960589805e-12
0.00176468372216
-3.16096056817e-11
0.00176468375309
-7.60171467983e-11
0.00176468382035
-4.13339366403e-11
-8.34371814435e-12
0.00186332704663
-3.82832666313e-11
0.00186332705939
-1.96022761385e-11
0.00186332705911
-8.58085585e-12
0.0018633270732
1.86719689683e-12
0.00186332707404
3.51874216049e-11
0.00186332705662
6.46104700852e-11
0.00186332702472
5.36310285055e-11
0.00186332701419
2.70000537936e-11
0.00186332696342
3.05211037423e-11
0.00186332695585
-1.60303508225e-11
0.00186332699558
-8.27193157297e-12
0.00186332695426
9.37414457644e-11
0.00186332697197
7.79205684615e-11
0.00186332699234
6.56117826082e-11
0.00186332700545
6.23329576089e-11
0.00186332700711
4.30179860051e-11
0.0018633270024
3.92293886907e-11
0.0018633269904
3.45179872367e-11
0.00186332698537
-6.87542093083e-12
0.00186332698954
-1.33346500574e-11
0.00186332699494
5.31484551111e-12
0.00186332699936
-3.15803832299e-11
0.00186332697377
-6.30799704772e-11
0.0018633269489
-6.34476571592e-11
0.00186332693923
-5.48556016159e-11
0.00186332691782
-2.13206421337e-11
0.00186332691482
-3.37947017801e-11
0.00186332692552
-2.02106441731e-11
0.00186332689778
-3.86772809989e-12
0.00186332690893
-8.7163819683e-11
0.00186332696405
-9.64636058493e-11
-4.78645784531e-11
0.00196344106354
-6.51418455997e-11
0.00196344108058
-3.66427223964e-11
0.00196344106876
3.24289891385e-12
0.00196344103881
3.18283747385e-11
0.00196344105764
1.63518018835e-11
0.0019634410828
3.94568092732e-11
0.00196344107
6.64347397443e-11
0.00196344103608
6.09111034634e-11
0.0019634410147
5.1893799748e-11
0.00196344097425
2.44145215865e-11
0.00196344099374
-2.77552166499e-11
0.00196344104875
3.87341412456e-11
0.00196344103994
8.67274409378e-11
0.00196344105452
5.10271098894e-11
0.00196344106259
5.4248498003e-11
0.00196344105559
5.0022733356e-11
0.00196344103738
5.74356228775e-11
0.00196344103161
4.02930581524e-11
0.0019634410234
1.33573468831e-12
0.00196344102151
-1.14350572313e-11
0.00196344103106
-4.24380100656e-12
0.00196344102122
-2.17471392297e-11
0.00196344098795
-2.98088010375e-11
0.00196344096344
-3.89338551106e-11
0.00196344095335
-4.4764935581e-11
0.00196344095679
-2.47681056026e-11
0.00196344095676
-3.37534930207e-11
0.00196344096623
-2.96844188275e-11
0.00196344099708
-3.47234550657e-11
0.00196344099586
-8.59414759671e-11
0.0019634410025
-1.03114242879e-10
-8.20295019317e-11
0.00206536806429
-6.10784459805e-11
0.00206536804622
-1.85627859952e-11
0.00206536805664
-7.17876528953e-12
0.00206536807579
1.26859298394e-11
0.0020653680997
-7.56602443756e-12
0.00206536809607
4.30892960755e-11
0.00206536807145
9.10665761862e-11
0.00206536805276
7.95931963839e-11
0.00206536804271
6.19569872287e-11
0.00206536803415
3.29742265523e-11
0.00206536796842
3.79692788745e-11
0.00206536798934
1.78096497915e-11
0.00206536807104
5.02443618696e-12
0.00206536807572
4.63472894203e-11
0.0020653680744
5.55660256901e-11
0.00206536806012
6.43004567163e-11
0.00206536805119
6.6371224385e-11
0.00206536805842
3.3072901018e-11
0.00206536806013
-3.71912364189e-13
0.00206536806167
-1.29697736022e-11
0.00206536806518
-7.75879180219e-12
0.00206536806916
-2.57281589976e-11
0.00206536806616
-2.68125656168e-11
0.0020653680529
-2.56740602984e-11
0.00206536805251
-4.43802341265e-11
0.00206536803514
-7.39556238418e-12
0.00206536800163
-2.39577040965e-13
0.0020653679986
-2.66582841683e-11
0.00206536801735
-5.34686581697e-11
0.00206536803281
-1.01402337755e-10
0.00206536804572
-1.16027974968e-10
-1.04663669457e-10
0.00216940465793
-2.84221855343e-11
0.00216940457772
6.16554251786e-11
0.00216940461055
-4.0006991716e-11
0.0021694046872
-6.39654352854e-11
0.00216940470303
-2.33883354127e-11
0.00216940468722
5.88889954011e-11
0.00216940466587
1.12420905453e-10
0.00216940467511
7.03482820419e-11
0.00216940468774
4.93439521605e-11
0.00216940470271
1.80135216583e-11
0.00216940470076
3.99180607456e-11
0.00216940467492
4.36499681048e-11
0.0021694046614
1.85343880412e-11
0.0021694046503
5.74467554844e-11
0.00216940466409
4.17787634091e-11
0.00216940467525
5.31472702567e-11
0.00216940468229
5.93295542324e-11
0.00216940469561
1.9747992186e-11
0.00216940469633
-1.08677516219e-12
0.00216940469252
-9.15481224493e-12
0.00216940468934
-4.58348787583e-12
0.0021694046827
-1.90897041399e-11
0.00216940466725
-1.13630761999e-11
0.00216940466297
-2.13924657967e-11
0.00216940468043
-6.18494810701e-11
0.00216940467408
-1.04739811355e-12
0.0021694046527
2.11523408787e-11
0.00216940466326
-3.72203160072e-11
0.00216940469346
-8.36707014771e-11
0.00216940468585
-9.37916089868e-11
0.00216940467883
-1.09001641325e-10
-1.16413111695e-10
0.00227581455314
-2.92511673119e-11
0.00227581462837
-1.35842779669e-11
0.00227581462085
-3.24839129547e-11
0.00227581459842
-4.15438571573e-11
0.00227581455542
1.96197650094e-11
0.00227581457185
4.24617449681e-11
0.00227581463504
4.92291896737e-11
0.00227581464687
5.85165813746e-11
0.00227581464171
5.45050312881e-11
0.00227581459533
6.44013406585e-11
0.00227581457465
6.06079732429e-11
0.00227581461822
8.42318590369e-14
0.00227581459215
4.46000978789e-11
0.00227581458348
6.61196154511e-11
0.00227581456972
5.55360801132e-11
0.00227581460508
1.77786982039e-11
0.00227581467478
-1.0360094627e-11
0.00227581467519
1.93461775507e-11
0.0022758146738
3.0000380455e-13
0.00227581467977
-1.51331022557e-11
0.00227581466945
5.7397331095e-12
0.00227581462188
2.84883690718e-11
0.00227581461463
-4.11491645349e-12
0.00227581461423
-2.09928031414e-11
0.0022758145533
-9.26386834654e-13
0.00227581458172
-2.94717968466e-11
0.00227581464529
-4.24091513409e-11
0.00227581463489
-2.68352033994e-11
0.00227581457688
-2.56599664631e-11
0.00227581460072
-1.17637031309e-10
0.00227581464228
-1.50554898488e-10
-2.64324891386e-11
0.00238483768047
-2.19735253098e-11
0.00238483769413
-2.72392739787e-11
0.00238483767198
-1.03300634839e-11
0.00238483761274
1.77018764072e-11
0.00238483764825
-1.58957453647e-11
0.0023848376984
-7.68477380807e-12
0.00238483769535
5.22961218957e-11
0.00238483771008
4.37897980304e-11
0.00238483770821
5.6377880408e-11
0.00238483767216
1.00445110896e-10
0.00238483768528
4.74954693537e-11
0.00238483766623
1.91274632052e-11
0.00238483767644
3.4392504428e-11
0.00238483772921
1.33534336405e-11
0.00238483773585
4.89001515534e-11
0.00238483772184
3.17800517227e-11
0.00238483772386
-1.23775676729e-11
0.00238483775122
-8.00722635605e-12
0.00238483775297
-1.44763501869e-12
0.00238483775608
-1.82407565284e-11
0.00238483776035
1.46037500907e-12
0.00238483775987
2.89742464373e-11
0.00238483774633
9.415671339e-12
0.00238483772716
-1.81935283256e-12
0.00238483775449
-2.82534254674e-11
0.00238483776819
-4.31798210265e-11
0.00238483773615
-1.03525086525e-11
0.00238483771784
-8.53498545369e-12
0.00238483772449
-3.23049243101e-11
0.00238483772477
-1.1791213254e-10
0.00238483769144
-1.17227072001e-10
-2.27369856652e-11
0.0024966961306
-1.07601004078e-11
0.00249669611641
-1.30516777882e-11
0.00249669609116
1.49145042875e-11
0.00249669609512
1.37484206787e-11
0.0024966960504
2.88173833961e-11
0.00249669606677
-2.40661130625e-11
0.00249669613699
-1.79188733789e-11
0.00249669615048
3.02970493631e-11
0.00249669615932
4.75414059736e-11
0.00249669618532
7.44481561306e-11
0.00249669617764
5.51657430476e-11
0.0024966961598
3.6967584407e-11
0.00249669616615
2.80453862302e-11
0.00249669616021
1.92842889852e-11
0.00249669618143
2.76906649872e-11
0.00249669618074
3.2471868038e-11
0.0024966961704
-2.02689554455e-12
0.00249669617008
-7.69473722188e-12
0.00249669616443
4.20261831659e-12
0.00249669617237
-2.61699737257e-11
0.00249669616058
1.32472085666e-11
0.00249669615697
3.25766519788e-11
0.00249669616823
-1.85163713281e-12
0.0024966961909
-2.44844117619e-11
0.00249669622144
-5.88029146543e-11
0.00249669619759
-1.93453665616e-11
0.00249669616363
2.36173026177e-11
0.00249669615639
-1.29767064285e-12
0.00249669614742
-2.33259928217e-11
0.00249669609573
-6.62190291261e-11
0.00249669610724
-1.28733580382e-10
-5.72979233406e-11
0.00261159940821
-1.02831277537e-10
0.0026115994142
-1.90476066982e-11
0.00261159939953
2.95795563482e-11
0.00261159941115
2.13504596908e-12
0.00261159942463
1.5340245537e-11
0.00261159938532
1.52370072763e-11
0.00261159938401
-1.66069597215e-11
0.00261159942588
-1.15739772343e-11
0.00261159945221
2.12097656506e-11
0.00261159947949
4.71580475892e-11
0.00261159948803
4.66358246142e-11
0.0026115994744
5.05908616008e-11
0.00261159945214
5.03053111055e-11
0.00261159943603
3.53883757174e-11
0.00261159943385
2.98786993422e-11
0.00261159945262
1.3699776777e-11
0.00261159947349
-2.2890288947e-11
0.00261159947645
-1.06511106197e-11
0.00261159945126
2.93885998852e-11
0.00261159938768
3.74252547165e-11
0.00261159940051
4.05261608235e-13
0.00261159946582
-3.27230081251e-11
0.00261159947604
-1.20712141306e-11
0.00261159947653
-2.49785209638e-11
0.00261159943592
-1.81841259049e-11
0.00261159943873
-2.21592237903e-11
0.00261159945421
8.13195180209e-12
0.0026115994371
1.58044475104e-11
0.00261159942939
-1.56058996136e-11
0.00261159939597
-3.27955602034e-11
0.00261159931023
-4.29885520973e-11
-6.32058863391e-11
0.00272974787454
-7.71398310339e-11
0.00272974789367
-3.81691389654e-11
0.00272974795971
-3.64564531953e-11
0.00272974796337
-1.53095608189e-12
0.00272974797828
4.31901505451e-13
0.00272974799034
3.17969057542e-12
0.00272974798333
-9.59126093305e-12
0.00272974798859
-1.68293929068e-11
0.00272974799199
1.78090109619e-11
0.0027297479939
4.52346483154e-11
0.00272974800556
3.49720682071e-11
0.00272974800189
5.42592742758e-11
0.00272974799114
6.10611522102e-11
0.00272974798603
4.04960469952e-11
0.00272974799188
2.4027113252e-11
0.00272974800272
2.86076739508e-12
0.00272974799365
-1.3817927741e-11
0.00272974798152
1.48905655964e-12
0.00272974797654
3.43642650876e-11
0.00272974798008
3.38834646215e-11
0.00272974797901
1.48857666996e-12
0.00272974797298
-2.66950138082e-11
0.00272974798804
-2.71332740976e-11
0.00272974799632
-3.32667529528e-11
0.00272974798041
-2.27537690692e-12
0.0027297479118
4.64570344947e-11
0.00272974792583
-5.90443015124e-12
0.00272974797888
-3.72363840235e-11
0.00272974798403
-2.07573586073e-11
0.00272974795461
-3.37101312973e-12
0.00272974789774
1.38778183536e-11
-6.56870220222e-11
0.00285133580024
-3.35538147346e-11
0.00285133578926
-2.71949840423e-11
0.00285133578724
-3.44365848687e-11
0.00285133580073
-1.50247363958e-11
0.00285133583873
-3.75685122044e-11
0.00285133584853
-6.62121109041e-12
0.00285133582019
1.87513301037e-11
0.00285133581873
-1.53746102679e-11
0.00285133581128
2.52639882439e-11
0.00285133579714
5.93764996424e-11
0.00285133578367
4.8432876014e-11
0.0028513358004
3.7532611767e-11
0.00285133584431
1.71476245607e-11
0.00285133585588
2.89245484674e-11
0.00285133585707
2.28331636591e-11
0.00285133584263
1.73021774576e-11
0.00285133581819
1.06204233862e-11
0.00285133580962
1.00696560001e-11
0.00285133581991
2.4081982322e-11
0.0028513358289
2.49025522069e-11
0.00285133583062
-2.26182650914e-13
0.00285133582765
-2.37247255039e-11
0.00285133582204
-2.15272915076e-11
0.00285133581014
-2.1358397765e-11
0.00285133577002
3.78411904392e-11
0.00285133578218
3.4298117951e-11
0.0028513358314
-5.51176078367e-11
0.0028513358332
-3.90459254683e-11
0.00285133582884
-1.6386387899e-11
0.00285133581776
7.7140123713e-12
0.00285133583984
-8.19650980169e-12
-6.9684125366e-11
0.00297655279191
-8.34031418266e-11
0.00297655285129
-8.65692755962e-11
0.00297655283254
-1.5681179543e-11
0.00297655281846
-9.42334826937e-13
0.00297655278275
-1.85145386593e-12
0.00297655279301
-1.68786192793e-11
0.0029765528124
-6.33444428306e-13
0.00297655276336
3.36683068407e-11
0.00297655277403
1.45938724412e-11
0.00297655283659
-3.1790079915e-12
0.00297655286075
2.42706682976e-11
0.00297655286658
3.17033355351e-11
0.00297655286645
1.72699162104e-11
0.00297655288503
1.0336746177e-11
0.0029765528894
1.84703106544e-11
0.00297655288231
2.43941314771e-11
0.00297655287214
2.07965438632e-11
0.00297655286415
1.80656792663e-11
0.0029765528709
1.73295850358e-11
0.00297655287994
1.5867586632e-11
0.0029765528747
5.01029896016e-12
0.00297655285475
-3.76722970439e-12
0.00297655282681
6.41365952551e-12
0.00297655277923
2.62178721459e-11
0.00297655282375
-6.67521796793e-12
0.00297655289047
-3.24216060709e-11
0.00297655287133
-3.59786142705e-11
0.00297655286402
-3.17418870462e-11
0.00297655286021
-1.25744386064e-11
0.00297655285453
1.33876319206e-11
0.002976552807
3.93301062619e-11
-4.74913864162e-12
0.00310558660202
-4.29790690722e-11
0.00310558654879
-3.33433184386e-11
0.00310558655069
-1.75823055998e-11
0.00310558657346
-2.37137399642e-11
0.00310558658804
-1.64392587872e-11
0.00310558656204
9.11002349194e-12
0.00310558652665
3.47631447662e-11
0.00310558652935
3.09655827445e-11
0.00310558653487
9.06981453603e-12
0.00310558653975
-8.05500562135e-12
0.00310558656952
-5.50059652521e-12
0.00310558659789
3.33011584243e-12
0.00310558661431
8.34606656622e-13
0.00310558662452
1.18311999669e-13
0.00310558662962
1.33730404045e-11
0.00310558663171
2.23214473565e-11
0.00310558662965
2.28502218727e-11
0.00310558661479
3.29297774259e-11
0.00310558660518
2.69519005883e-11
0.00310558661211
8.93638834011e-12
0.0031055866062
1.09241414571e-11
0.00310558658752
1.49142513711e-11
0.00310558657949
1.44450736323e-11
0.00310558658157
2.41417997526e-11
0.00310558656894
5.95873731995e-12
0.00310558656071
-2.42019292462e-11
0.00310558655256
-2.78296585292e-11
0.00310558654578
-2.49534167856e-11
0.00310558655486
-2.16565593407e-11
0.00310558658125
-1.30000345811e-11
0.00310558662694
-6.34689775837e-12
-2.02649517303e-11
0.00323862350308
-2.84279624199e-11
0.00323862349994
-3.0203519174e-11
0.00323862352086
-3.8505974016e-11
0.00323862352639
-2.92465478854e-11
0.00323862349604
1.3931418418e-11
0.0032386235112
-6.03387772196e-12
0.00323862355787
-1.18989321654e-11
0.00323862356511
2.37081070356e-11
0.00323862355803
1.61482156811e-11
0.00323862354772
2.24843032475e-12
0.00323862355184
-9.61020384718e-12
0.00323862358281
-2.76379710822e-11
0.00323862360888
-2.52251914286e-11
0.00323862361433
-5.32671321633e-12
0.00323862360865
1.90515487459e-11
0.00323862358631
4.46571335967e-11
0.00323862354378
6.53690953098e-11
0.003238623549
2.77018328444e-11
0.00323862358857
-1.26246108064e-11
0.00323862358592
1.15946266746e-11
0.00323862357097
2.58696009927e-11
0.00323862355463
3.12504506964e-11
0.00323862353634
3.27178483418e-11
0.00323862352352
3.69565654871e-11
0.0032386235115
1.7995985734e-11
0.00323862350204
-1.47455836936e-11
0.00323862350174
-2.75337657122e-11
0.00323862350398
-2.71916306659e-11
0.00323862350305
-2.07307044447e-11
0.00323862350397
-1.3923467902e-11
0.00323862351595
-1.83135671346e-11
-2.19712485918e-11
0.00337585027017
-2.28897977092e-11
0.00337585028477
-4.4807455873e-11
0.00337585031146
-6.52020364551e-11
0.00337585032595
-4.37526928548e-11
0.00337585033995
-8.58444476116e-14
0.00337585032959
4.30868576296e-12
0.00337585032446
-6.75429674517e-12
0.00337585034494
3.22656326786e-12
0.00337585035489
6.21374527507e-12
0.00337585035653
6.16371099753e-13
0.00337585036524
-1.83235397847e-11
0.00337585037218
-3.45933520504e-11
0.00337585037056
-2.36263197128e-11
0.00337585036208
3.15311071921e-12
0.00337585035825
2.28854975269e-11
0.00337585036394
3.89716847891e-11
0.00337585037867
5.06435275899e-11
0.00337585037447
3.19018775714e-11
0.00337585035862
3.21776411959e-12
0.00337585035601
1.42041150156e-11
0.00337585035372
2.81627452044e-11
0.00337585035685
2.81224108805e-11
0.00337585035707
3.25115665333e-11
0.00337585036084
3.31817935009e-11
0.00337585035763
2.11830351247e-11
0.00337585035069
-7.79934840597e-12
0.00337585034146
-1.82998751401e-11
0.00337585032449
-1.02170862394e-11
0.00337585030819
-4.40802604853e-12
0.00337585029825
-3.9737703963e-12
0.00337585028806
-8.13292751005e-12
-9.59691636772e-12
0.00351745465256
-1.38819548727e-11
0.00351745464786