/*--------------------------------*- C++ -*----------------------------------*\
| =========                 |                                                 |
| \\      /  F ield         | OpenFOAM: The Open Source CFD Toolbox           |
|  \\    /   O peration     | Version:  v2012                                 |
|   \\  /    A nd           | Website:  www.openfoam.com                      |
|    \\/     M anipulation  |                                                 |
\*---------------------------------------------------------------------------*/
FoamFile
{
    version     2.0;
    format      ascii;
    class       volVectorField;
    location    "50000";
    object      U;
}
// * * * * * * * * * * * * * * * * * * * * * * * * * * * * * * * * * * * * * //

dimensions      [0 1 -1 0 0 0 0];


internalField   nonuniform List<vector> 
3200
(
(0.866305577818 -5.91946750791e-19 2.26859727578e-08)
(0.866305574234 -5.4685701922e-19 -8.60466214796e-09)
(0.866305717669 -1.62708114325e-18 -5.63347613975e-08)
(0.866305732415 -1.1858129545e-18 -1.32437384815e-08)
(0.866305888697 -1.54233317017e-18 -6.99312221564e-09)
(0.866305848084 -1.99540005803e-18 -1.90987966822e-08)
(0.866305998211 -2.05106460602e-18 -4.0406900418e-09)
(0.866305854732 -1.624523994e-18 1.68951934944e-08)
(0.86630590897 -1.49203465248e-18 1.20616292593e-08)
(0.866305932752 -1.67696895568e-18 -1.72040817484e-08)
(0.866305958309 -5.31051180744e-19 4.3630951314e-10)
(0.8663058185 -1.27836138616e-18 2.008300841e-08)
(0.866306014786 -1.13526368377e-18 -3.2410220693e-08)
(0.866305955269 -5.75087207377e-19 -1.93454587242e-08)
(0.866306085214 -1.15159906765e-18 1.31457188411e-08)
(0.866306058361 -1.13786140963e-18 -5.67472171509e-09)
(0.866306038853 -1.78602679131e-18 -3.25238232836e-09)
(0.86630613031 -2.23760100793e-18 -1.49709024035e-08)
(0.866306080433 -8.3177378588e-19 5.17252466626e-09)
(0.866306065048 -5.1617678981e-19 6.21817744212e-09)
(0.866306021129 -1.61909142413e-19 -2.17412788027e-09)
(0.86630603698 -2.24568902423e-18 2.21866852821e-08)
(0.866305956452 -2.52710457094e-18 1.74619129914e-08)
(0.866305824365 -1.42390209255e-18 3.24021098868e-08)
(0.866305770152 -2.07787819838e-18 3.08896281483e-08)
(0.866305681251 -6.37785315788e-19 9.45935286809e-09)
(0.8663056873 -2.42355839816e-18 -6.21979546741e-09)
(0.866305789728 -3.19297608407e-18 -4.69350354518e-08)
(0.866305895608 -1.65846729088e-18 -1.6769741648e-08)
(0.866305891556 -1.23985401268e-18 -4.55656789187e-09)
(0.866305843244 -1.53717935023e-18 1.86519875857e-08)
(0.866305723643 -2.37313685762e-18 3.8084038914e-08)
(1.54140825288 -2.09884123638e-18 6.27154670603e-08)
(1.54140837821 -1.76875386117e-18 -1.55264330078e-08)
(1.54140827284 -3.11415102053e-18 -8.33399961894e-08)
(1.54140819569 -1.46676030322e-18 -4.26039275452e-08)
(1.54140847086 -2.68248107737e-18 -4.42445615332e-08)
(1.54140840812 -4.19479987033e-18 -4.42715701246e-08)
(1.54140860008 -3.74414626319e-18 -3.91286177808e-08)
(1.54140849135 -2.33590450773e-18 8.5471777204e-09)
(1.54140859851 -2.41267525239e-18 3.47205255224e-08)
(1.54140851789 -3.32429740656e-18 -2.45202432478e-08)
(1.54140853538 -8.73361326694e-19 2.11553099684e-08)
(1.54140830944 -2.1707346336e-18 4.59937444803e-08)
(1.54140873423 -2.17103057278e-18 -1.08435092042e-07)
(1.54140856519 -5.52567341767e-20 -4.07165545869e-08)
(1.54140873691 -2.72848470589e-18 1.26511444054e-08)
(1.54140874518 -4.06218371447e-18 -2.55617212959e-08)
(1.54140860775 -4.1509931251e-18 2.50305610585e-10)
(1.54140872003 -3.43586621408e-18 -2.37784015278e-08)
(1.54140849882 -8.84722249504e-19 3.52378866732e-08)
(1.54140871447 2.84890045758e-19 3.79198179261e-08)
(1.54140835099 -1.86513536542e-19 -2.18591292059e-08)
(1.54140856123 -7.18930318431e-18 2.61373297261e-08)
(1.54140850366 -3.64573397786e-18 7.66173091501e-08)
(1.5414082695 -5.42438733372e-19 5.98108028238e-08)
(1.54140842249 -4.12640270035e-18 2.82926013061e-08)
(1.54140832971 -3.1508893772e-18 2.70573184025e-08)
(1.54140849796 -4.17997362485e-18 -4.54934728304e-08)
(1.54140839289 -5.32110540005e-18 -4.92040172632e-08)
(1.54140842868 -2.36731612079e-18 -1.43235145968e-08)
(1.54140839153 -2.48837785165e-18 2.89538914132e-08)
(1.54140830231 -1.71856531416e-18 4.56552920335e-08)
(1.54140835977 -2.39417766151e-18 8.61004728228e-08)
(1.92369023065 -4.3129673586e-18 5.39455869542e-08)
(1.92369036675 -3.52007652317e-18 -1.63649534684e-08)
(1.9236901606 -3.35739101991e-18 -6.78028532026e-08)
(1.92369018444 -4.28405821187e-18 -6.80940002364e-08)
(1.92369031988 -3.31934682112e-18 -6.71082909667e-08)
(1.92369039132 -2.80328829638e-18 -8.31885638975e-08)
(1.92369034255 -3.76034981083e-18 -3.14626105449e-08)
(1.92369024529 -2.53492004472e-18 -2.39104748751e-09)
(1.92369041254 -1.89268254381e-18 2.56247111194e-08)
(1.92369038341 -3.37153495602e-18 -1.01641424402e-08)
(1.92369032314 -3.23935257124e-18 -5.29078917854e-09)
(1.92369060498 -3.04240650407e-18 -8.08326901939e-08)
(1.92369060561 -2.21271260675e-18 -7.89114594093e-08)
(1.92369019344 -4.16213082444e-19 -3.96213807481e-08)
(1.9236904809 -3.26972201143e-18 -2.22024866626e-09)
(1.92369047309 -3.0536474958e-18 -1.67654796995e-08)
(1.92369037364 -2.93248945684e-18 6.15668967877e-09)
(1.92369048717 -3.22066530943e-18 5.34116108415e-09)
(1.92369030488 -1.43749130805e-18 6.01674084729e-08)
(1.92369047668 -3.17959538298e-18 2.31383456774e-08)
(1.92369037396 -3.94969349033e-18 2.75581239541e-08)
(1.92369038502 -6.25598571531e-18 5.56440232222e-08)
(1.92369028425 -4.7552807357e-18 8.4910351018e-08)
(1.92369041419 -3.77872815159e-18 8.72446665802e-08)
(1.92369027466 -4.56270258761e-18 2.00552794198e-08)
(1.92369044113 -4.88627312237e-18 -1.74515109949e-08)
(1.92369043496 -4.43630960937e-18 -2.87754968332e-08)
(1.92369036907 -3.80255079661e-18 -3.91068317241e-08)
(1.92369026894 -3.97773295812e-18 -1.23183555616e-09)
(1.92369038441 -2.31510750023e-18 3.69417778287e-08)
(1.92369032772 -5.85454385766e-19 7.2646197473e-08)
(1.92369028954 -2.74418479192e-18 5.94817562416e-08)
(2.19300950341 -8.09559760795e-18 3.71363336237e-08)
(2.19300969551 -4.03951239573e-18 -1.54271112814e-08)
(2.19300953555 -5.76983950616e-18 -4.66039516674e-08)
(2.19300948922 -7.28612378171e-18 -8.93905954986e-08)
(2.19300966389 -1.06309138257e-18 -1.43173917649e-07)
(2.19300951702 -6.22937541109e-19 -3.99802956174e-08)
(2.19300951877 -4.44836432114e-18 -2.39486897295e-08)
(2.19300964086 3.81349355313e-18 4.10771030389e-09)
(2.19300956814 1.20136696787e-18 -1.91111522403e-08)
(2.1930097481 -8.84809736736e-18 -3.30943070141e-08)
(2.19300967586 -5.40413935217e-18 -3.87556537513e-08)
(2.19300980321 -3.87675448668e-18 -5.50863520109e-08)
(2.19300959233 7.81328519725e-20 -3.09409944883e-08)
(2.19300963186 1.00789579648e-18 1.60878592081e-08)
(2.19300970574 -5.35035277463e-18 -2.92581131917e-08)
(2.19300959507 -1.39112537678e-18 -2.15660286669e-08)
(2.19300960824 -1.65565942543e-18 -7.6009392934e-09)
(2.19300962913 -2.87233662386e-18 1.60465523008e-08)
(2.19300953025 -1.27041552971e-18 5.85888111882e-08)
(2.19300974205 -8.22457795836e-18 2.95507040178e-08)
(2.19300943373 -9.03940682823e-18 3.14657462861e-08)
(2.19300963113 -8.13122732134e-18 1.23128703001e-07)
(2.19300940705 -1.75828067234e-18 6.15546815811e-08)
(2.19300963322 -4.21796674509e-18 6.32778591276e-08)
(2.19300953625 -8.52865035076e-18 -1.50070818488e-09)
(2.19300964571 -7.2902514404e-18 -5.08991638978e-08)
(2.19300973499 -2.23200144195e-18 -2.45215858676e-08)
(2.19300962676 -1.71615884492e-18 9.36174723984e-09)
(2.19300947896 -6.0426147474e-18 9.0832259016e-09)
(2.19300969684 3.94456552849e-19 4.1765732489e-08)
(2.19300929565 3.77831296529e-18 7.06693078058e-08)
(2.19300966227 -7.86084513928e-18 1.08917653482e-07)
(2.40112001798 -6.20533502753e-18 4.73669758944e-08)
(2.4011199282 -1.01521794106e-18 -1.6069992573e-08)
(2.40111989198 -4.36240494659e-18 -3.54756113092e-08)
(2.40111992666 -9.87465576481e-18 -8.725075725e-08)
(2.40111987351 -3.1074735463e-18 -8.8770082989e-08)
(2.40111972739 1.15934838988e-18 -3.58884096391e-08)
(2.40111986882 -2.1810661124e-18 -5.52714273897e-08)
(2.40111982211 -2.203128364e-20 -2.71113679588e-08)
(2.40111987462 -3.60349938328e-18 -1.21828707065e-08)
(2.40111992663 -5.38416925017e-18 -5.05703484087e-08)
(2.40111972425 -3.71334270899e-18 -4.3440044039e-08)
(2.40111997568 -1.81882337151e-18 -3.67486919952e-08)
(2.40111953661 5.77253114067e-19 -3.59999769464e-09)
(2.40111983431 1.36265044945e-18 -2.66748429404e-08)
(2.40111995416 -3.20058477593e-18 -2.80788606782e-08)
(2.40111980099 -6.55407599994e-18 -1.59920967395e-09)
(2.40111982062 -3.75705246981e-18 6.53287962614e-09)
(2.4011198012 -2.64496489266e-18 2.98808948288e-08)
(2.40111967709 -5.73031120002e-18 5.88543326251e-08)
(2.40111989131 -8.39793135893e-18 5.96744125938e-08)
(2.40111942039 -1.27501402306e-17 3.64643496914e-08)
(2.4011198132 -4.62609358765e-18 9.24646199195e-08)
(2.40111981474 -4.1100994295e-18 8.02964636059e-08)
(2.40111977376 -8.30596532517e-18 3.25186579268e-08)
(2.40111986128 -7.00775501821e-18 -1.69550100842e-08)
(2.40111982072 -6.39343241634e-18 -8.44771369518e-08)
(2.40111994578 -2.95171599713e-18 -5.37729955069e-08)
(2.40111996658 -1.40285156874e-18 5.49719924707e-08)
(2.40111986758 -2.64956134997e-18 1.57262502297e-08)
(2.40111989962 -2.63592855501e-18 4.78234380084e-08)
(2.40111990924 2.6089295899e-18 7.32430159026e-08)
(2.4011198513 -1.2898603139e-18 5.91269110316e-08)
(2.571212739 2.46504508729e-18 3.09730794029e-08)
(2.57121268004 -2.36774388019e-19 1.43021849019e-08)
(2.57121264111 -9.79860099157e-18 -1.42671230887e-08)
(2.57121255196 -8.64689810198e-18 -2.5473326133e-08)
(2.57121237905 5.71332529705e-19 -3.48373895376e-08)
(2.57121223123 9.56882364382e-18 -9.68621589735e-08)
(2.5712125874 -9.79204592568e-18 -7.73194260624e-08)
(2.57121243207 -6.1313227133e-18 -3.33780350295e-08)
(2.57121259157 -2.00651493276e-18 -2.53970433132e-08)
(2.57121256728 -3.11055053257e-18 -7.1785924891e-09)
(2.57121236171 5.37412765731e-20 -1.8726495656e-08)
(2.57121237256 4.60122554899e-18 -3.11091705484e-08)
(2.57121247063 3.01925992964e-18 -2.38287274041e-08)
(2.57121249802 -7.58325058386e-19 -6.17050991738e-08)
(2.57121257153 -4.58626447081e-18 -2.49906241892e-08)
(2.57121240736 -1.19553423338e-17 2.6018976028e-08)
(2.5712125382 -1.47811115139e-17 3.63809568395e-08)
(2.57121238808 -9.56210982246e-18 7.11359934772e-08)
(2.57121235619 -6.65330484704e-18 6.18303565647e-08)
(2.5712124505 -6.56450115967e-18 5.11920747708e-08)
(2.57121239198 -1.19102892862e-17 5.77238641434e-08)
(2.57121249842 -9.74995125839e-18 5.35680211242e-08)
(2.57121232195 -4.72993519761e-18 4.63853877489e-08)
(2.57121244532 -4.37755888941e-18 1.49079397533e-08)
(2.57121253322 -4.41864711682e-18 -3.27818199894e-08)
(2.57121256673 -3.84460327664e-18 -8.50575820129e-08)
(2.57121227259 -2.1134838207e-18 -2.94519102219e-08)
(2.57121261292 -2.86038883231e-18 9.37795315975e-11)
(2.5712126467 -2.46976505755e-18 1.59681164696e-08)
(2.5712126236 -1.96796863851e-18 4.62268575607e-08)
(2.57121273833 -1.42946706507e-18 6.61120698876e-08)
(2.57121262344 -2.28583400884e-18 4.48806899331e-08)
(2.71552101365 -9.13098925435e-18 2.97362576831e-08)
(2.71552098687 -4.05772954458e-18 3.41514329634e-08)
(2.71552096638 -1.73608652591e-18 4.36972613309e-08)
(2.71552062352 -3.32577441277e-18 3.42194193082e-08)
(2.71552092969 4.92006668962e-18 -2.48028112045e-08)
(2.71552085095 8.13345310402e-19 -9.96889772587e-08)
(2.71552056059 -6.86063382638e-18 -5.77760956952e-08)
(2.7155207001 -7.31979135339e-19 -5.01390621823e-08)
(2.7155207785 3.65053694092e-19 -4.77486029428e-08)
(2.71552073868 -1.94234649563e-18 6.24555127843e-09)
(2.71552081773 -1.48167647875e-18 2.58262074422e-08)
(2.71552068639 -4.10636714608e-18 -4.4356377962e-08)
(2.7155207254 -3.62977961274e-18 -4.61286884394e-08)
(2.71552068602 4.51292803928e-18 -6.39195318474e-08)
(2.71552082271 -5.44822938835e-19 -2.95280339269e-08)
(2.71552074101 -1.20048486401e-17 2.35355880951e-08)
(2.71552082681 -1.27351834396e-17 4.65987417056e-08)
(2.71552077226 -9.19114102334e-18 7.40638455977e-08)
(2.7155208737 -7.64995340144e-18 8.7442956469e-08)
(2.71552038894 -5.87411929034e-18 5.71681265737e-08)
(2.71552074868 -1.22817548055e-17 2.90283396384e-08)
(2.71552060567 -1.00026276868e-17 4.56835972358e-08)
(2.71552080909 -4.30579451872e-18 6.60357457952e-08)
(2.71552076981 -3.51188679189e-18 -2.1980264554e-08)
(2.71552087106 -3.4865071955e-18 -5.09473407664e-08)
(2.71552085395 -2.67762034429e-18 -8.12819985542e-08)
(2.71552092086 -2.59961430082e-18 -8.00939648893e-08)
(2.71552086202 -4.37405172609e-18 -3.88480482985e-08)
(2.71552097636 -4.9411396342e-18 -1.21451990503e-08)
(2.71552092565 -3.44861901705e-18 3.66580790377e-08)
(2.71552103551 -3.05931805796e-18 6.6249540681e-08)
(2.71552086296 -2.18756535727e-18 4.28561509687e-08)
(2.84124151401 -1.77981905943e-18 2.38788452039e-08)
(2.84124157393 -1.60134059063e-18 1.69719345521e-08)
(2.84124156792 -4.27508585974e-18 8.21846463853e-08)
(2.84124156666 -4.09327987398e-18 4.86926392655e-08)
(2.84124158694 -1.32096081832e-18 -1.62365646402e-08)
(2.84124151898 -2.25038261611e-18 -2.31335455969e-08)
(2.84124134905 -5.19894525742e-18 -1.25423958077e-08)
(2.84124147643 -3.74806148553e-18 -8.15025958729e-08)
(2.84124143822 -1.84645813198e-18 -4.41518868324e-08)
(2.84124142598 -5.36784839275e-18 5.62010597991e-09)
(2.84124145458 -2.91413650007e-18 1.73922453277e-08)
(2.84124134357 -6.03522317537e-19 -2.37270798018e-08)
(2.84124130879 -8.77721707539e-19 -3.50048612341e-08)
(2.84124133816 2.78906382615e-18 -7.73103532753e-08)
(2.8412413691 -1.49883377614e-18 -5.33256693063e-08)
(2.84124128671 -8.29343403071e-18 1.87681508145e-08)
(2.84124135637 -1.04342544196e-17 3.66445486612e-08)
(2.84124132949 -9.14811676928e-18 3.9546737047e-08)
(2.84124145856 -9.05544164424e-18 1.71560619304e-07)
(2.84124127763 -7.14108770295e-18 1.24889365063e-07)
(2.84124137048 -7.62433724213e-18 3.39954006391e-08)
(2.84124103087 -6.86833915564e-18 6.98179336174e-09)
(2.84124149847 -4.86034834237e-18 -3.68042978846e-08)
(2.84124142393 -5.51366499665e-18 -4.18602148696e-08)
(2.84124150122 -3.94419685557e-18 -5.81070909219e-08)
(2.84124149525 -7.38652578466e-20 -7.56039626331e-08)
(2.84124118214 -1.65086310502e-18 -8.46001069777e-08)
(2.84124151434 -9.73592001925e-18 -9.32999178672e-08)
(2.84124158781 -1.12359960561e-17 -2.98053168711e-08)
(2.84124136695 -6.54644709513e-18 4.31806159937e-08)
(2.84124158163 1.15555052715e-19 6.01807994007e-08)
(2.84124147717 8.38752256825e-19 5.57095560324e-08)
(2.9529512004 -3.7364602168e-19 4.18703829068e-08)
(2.95295096119 1.6886211027e-18 -1.50180580003e-08)
(2.952951125 -1.15095272912e-17 3.19145312481e-08)
(2.95295123709 -3.7520697594e-18 2.5667656933e-08)
(2.95295120634 1.39656856216e-18 -1.19995150991e-08)
(2.95295116999 -4.88549565454e-18 2.72128479414e-09)
(2.95295126289 -8.03009080568e-18 -3.85672159688e-08)
(2.95295121182 -6.91302607633e-18 -7.9890466288e-08)
(2.95295120942 -4.00229073197e-18 -2.27902325639e-08)
(2.95295105996 -4.43311463627e-19 5.19424984431e-09)
(2.95295118628 4.02618494589e-19 2.82259596834e-08)
(2.95295119325 -3.67308490437e-18 1.20400703023e-08)
(2.95295104772 7.04797872843e-19 -1.34713729969e-08)
(2.95295112815 1.16697797283e-17 -2.33327434358e-08)
(2.9529507282 -1.62232621664e-18 -3.57818433874e-08)
(2.95295097046 -2.20643714044e-17 1.47744306011e-08)
(2.95295094949 -1.24453830019e-17 5.25460510517e-08)
(2.95295082167 -8.6364127517e-18 3.13210519685e-08)
(2.9529507119 -1.24145868572e-17 8.01719280717e-08)
(2.95295107778 -3.25667723283e-18 1.1510804091e-07)
(2.95295119031 -5.20027066353e-18 1.96783251789e-08)
(2.95295114027 -8.22323609864e-18 -2.16586216774e-08)
(2.95295124419 -7.14566710308e-18 -4.38466942539e-08)
(2.95295117649 -9.07799779544e-18 -5.22722486288e-08)
(2.95295124833 -3.13174776335e-18 -5.94640341271e-08)
(2.95295125778 1.0156423318e-17 -4.73534026429e-08)
(2.95295118124 -2.4291727676e-18 -6.68495477145e-08)
(2.9529512394 -1.50507784892e-17 -1.02598013237e-07)
(2.95295107486 -1.94075058319e-17 -5.18210254341e-08)
(2.95295130409 -1.0188951749e-17 4.14875676792e-08)
(2.95295127516 8.25406404367e-18 7.28788588966e-08)
(2.95295114996 4.70584369234e-18 8.23541797027e-08)
(3.05373520263 -1.50718784606e-18 7.07347283139e-08)
(3.05373514395 1.47963897735e-18 5.90568139518e-09)
(3.05373515962 -9.51359542127e-18 -3.10080325121e-09)
(3.0537351125 -9.887701845e-18 2.13462004332e-08)
(3.05373515738 2.30295880627e-18 2.00492473763e-08)
(3.05373497329 1.62533858187e-19 3.46635290756e-09)
(3.05373516043 -1.73062890083e-17 -3.04502669142e-08)
(3.05373487959 -1.12519027354e-17 1.91220342256e-09)
(3.05373499354 -4.95203104022e-18 -3.555794912e-08)
(3.05373505122 -3.44767850657e-18 -5.99346669206e-10)
(3.05373508576 8.9469253126e-18 5.00884892087e-11)
(3.05373512741 2.55127919752e-18 2.00460772712e-08)
(3.05373506888 1.75801677482e-18 2.89840810117e-08)
(3.0537349427 3.97270659194e-18 5.48204591543e-08)
(3.05373496484 -1.04214555372e-17 4.51502605279e-08)
(3.0537345793 -1.32477705613e-17 -3.16153498986e-10)
(3.05373498109 2.08254175336e-18 7.14252182701e-08)
(3.05373478993 -4.3747599199e-18 4.41864279472e-08)
(3.05373484955 -6.51424086761e-18 5.09619667463e-08)
(3.05373497794 -7.71822435004e-18 9.25788099565e-09)
(3.05373508568 -9.04938976769e-18 -3.38787194118e-08)
(3.05373489357 -5.5710966126e-18 -2.5773036448e-08)
(3.0537350982 8.42020189105e-18 -5.3544600324e-08)
(3.05373503888 1.43057362577e-18 -6.29533155794e-08)
(3.05373511257 -1.80073706714e-17 -5.17339156461e-08)
(3.05373496132 -1.2572839986e-17 -7.04425027297e-08)
(3.05373505742 4.99438923653e-18 -6.28469038434e-08)
(3.05373506808 1.8385024921e-18 -7.78560396708e-08)
(3.05373506842 -9.11507901794e-18 -1.03612922611e-07)
(3.05373511598 -4.75298983048e-18 9.44115304687e-09)
(3.05373517512 2.50076102755e-19 9.27617434176e-08)
(3.05373504943 -6.23211741774e-19 9.1189691156e-08)
(3.14576886944 5.05032969284e-18 5.0075010643e-08)
(3.14576873636 4.27449143868e-18 -7.35478941035e-09)
(3.14576881614 -8.60852326916e-18 -7.49306489807e-10)
(3.14576883311 -2.07115139788e-17 3.53815374199e-08)
(3.1457688286 -1.18359043947e-17 4.86137722366e-08)
(3.14576875876 -6.2784120711e-18 1.52910729355e-08)
(3.14576875422 -8.41705233716e-18 1.1829633563e-09)
(3.14576877707 -5.65007177358e-18 -2.23650165978e-09)
(3.14576850377 -5.98464375561e-18 -2.27375555713e-08)
(3.14576875857 1.06923005774e-18 -5.1860749031e-08)
(3.14576870977 -2.88877495017e-19 2.14541553497e-10)
(3.1457687057 -5.82883386259e-18 4.91000370017e-08)
(3.14576852614 -2.48057462876e-18 4.72571396011e-08)
(3.14576848677 3.53549577417e-18 9.39029024837e-08)
(3.14576858055 7.5427843671e-20 6.71752624e-08)
(3.14576851873 -6.49990837009e-18 2.62238929462e-08)
(3.14576839759 -7.77353195169e-18 1.36254077584e-08)
(3.14576851918 -4.10004501462e-18 5.45694878161e-08)
(3.14576851491 -4.10761850547e-18 2.29677242245e-08)
(3.14576858182 3.29719509414e-19 -1.16929813421e-08)
(3.14576865538 -5.0843404979e-18 -2.28421279887e-08)
(3.14576825409 -1.3658777371e-17 -2.8660910643e-08)
(3.14576867212 -3.10926082926e-18 -8.51906241147e-08)
(3.14576853716 1.1491868542e-18 -7.83664857245e-08)
(3.14576866543 -3.27302793712e-18 -6.37580604921e-08)
(3.14576865243 1.32023426008e-18 -6.46270002298e-08)
(3.14576856084 -6.5293855635e-19 -6.78794143596e-08)
(3.14576863197 -1.24108499263e-17 -4.94314207975e-08)
(3.14576865154 -5.51573237558e-18 -1.02081124921e-07)
(3.14576826185 9.35668734066e-19 -2.64408280666e-08)
(3.1457688635 -7.36797828735e-19 8.52848755353e-08)
(3.14576868527 5.96037147656e-18 6.20191335045e-08)
(3.23064241778 -1.06729247053e-17 2.99203615412e-08)
(3.23064236948 2.06201115401e-18 3.77314498452e-09)
(3.23064235498 7.61918486746e-18 -9.55468603102e-09)
(3.23064241035 -1.61710659888e-17 2.75829077435e-08)
(3.23064240553 -1.24801660847e-17 4.80003269236e-08)
(3.2306423837 -8.08099060481e-18 4.97909522944e-08)
(3.23064233129 -8.82334640175e-18 1.81475040783e-08)
(3.23064236651 -7.04990936077e-18 2.23690089947e-08)
(3.23064233992 -1.49725152207e-17 -3.64165564136e-08)
(3.23064229707 -1.64276918109e-17 -4.63778985903e-08)
(3.23064226319 3.93774440369e-18 1.82069493621e-08)
(3.23064219668 8.81135748704e-18 6.16086359388e-08)
(3.23064226765 -7.30894313954e-18 1.4106985375e-07)
(3.23064214241 5.54847271073e-18 9.26147015719e-08)
(3.23064228149 5.6472360841e-18 8.77000605743e-08)
(3.23064200944 -5.24118646413e-18 3.55918434888e-08)
(3.23064223495 -1.27974437545e-18 4.8923797888e-08)
(3.23064200066 2.23070285382e-18 3.51268455669e-08)
(3.23064217757 -6.69564097204e-19 4.654105067e-10)
(3.23064218871 -1.47093973253e-17 -1.7067242888e-08)
(3.23064215453 -1.04145929189e-17 1.0010412e-09)
(3.23064205066 -1.04913214111e-17 -3.40717825768e-08)
(3.23064216392 -6.75177942772e-18 -9.23423527939e-08)
(3.23064217459 9.60667396297e-18 -1.00375763645e-07)
(3.23064222952 9.28429647605e-19 -8.25315794453e-08)
(3.23064224733 -7.48542535737e-18 -5.97844384541e-08)
(3.2306421024 -1.66737280079e-17 -5.1818838819e-08)
(3.2306421922 -8.77189970136e-18 -2.30442756053e-08)
(3.23064222571 7.635534513e-18 -6.05153982017e-08)
(3.2306417879 7.94147281772e-18 -8.69215900714e-08)
(3.23064238237 -4.26246838602e-18 -1.65908531542e-08)
(3.23064223862 -3.71062359588e-18 1.69221531827e-08)
(3.30955296206 -3.01205587484e-18 -1.94453960626e-08)
(3.30955300473 -6.82847354776e-18 -1.32252231947e-08)
(3.3095529245 -1.3822237456e-17 -5.86203031851e-09)
(3.30955303606 -1.29014066939e-17 1.04257163742e-08)
(3.30955300559 -5.18795022349e-18 4.51318014812e-08)
(3.30955300328 -8.08521594966e-18 7.38353485746e-08)
(3.3095529696 -1.47135320783e-17 4.85066638123e-08)
(3.30955287338 -7.19636471015e-18 1.90361843035e-08)
(3.3095529959 -9.09018735262e-18 3.02720232633e-09)
(3.30955259595 -1.04428571808e-17 -1.77973427888e-08)
(3.30955297597 9.02941923432e-18 1.30137447293e-08)
(3.3095527914 -4.15025973268e-18 8.28410215061e-08)
(3.30955278775 -1.90348361894e-17 9.8083676102e-08)
(3.30955285779 1.14769323804e-17 1.05508218376e-07)
(3.30955292287 8.9957153649e-18 8.12057990653e-08)
(3.30955285246 -5.94084103448e-18 6.44608161144e-08)
(3.30955292187 1.63079931081e-20 4.64121011205e-08)
(3.3095528528 -6.64377745001e-19 3.68428923084e-08)
(3.30955285949 -3.04108390532e-18 -1.08867583076e-09)
(3.30955287069 -1.04156146623e-18 -1.68661665699e-08)
(3.30955287868 3.2131480643e-18 8.48076000431e-09)
(3.30955283493 -1.24101740152e-17 -4.11645988765e-08)
(3.30955289837 -1.39375693377e-17 -1.06520389568e-07)
(3.30955277908 4.22047622327e-19 -1.00409777061e-07)
(3.30955280575 -3.47045341071e-18 -7.57624569141e-08)
(3.30955278711 -1.005108531e-17 -4.16653301494e-08)
(3.30955263961 -1.04190213905e-17 -6.02235397222e-08)
(3.30955277534 -6.84438853295e-18 -1.57438339342e-08)
(3.3095528649 8.65238843001e-18 -2.03833790391e-08)
(3.30955242296 8.74255837025e-18 -1.01535228797e-07)
(3.30955293455 -1.15793261465e-17 -8.74548383608e-08)
(3.30955280279 -7.49507017453e-18 -3.49482155915e-08)
(3.383423814 -3.96348568441e-18 -7.27538775511e-08)
(3.38342382871 -6.38705853303e-18 -4.27707296762e-08)
(3.38342379593 -1.10855993269e-17 -5.19812475749e-09)
(3.38342381996 -1.23914278704e-17 1.67478387271e-08)
(3.38342370666 -2.12556071346e-17 3.27174523085e-08)
(3.38342386033 -1.33215288329e-17 6.83190435868e-08)
(3.38342382427 4.39499346446e-19 7.90566671489e-08)
(3.38342380527 -2.61299536126e-18 6.1430213086e-08)
(3.38342371467 -1.5234982784e-17 4.84685782857e-08)
(3.38342376081 -8.69279229184e-18 -4.31304813029e-09)
(3.38342349014 -5.22067792645e-18 -8.35862881526e-09)
(3.38342380498 -2.47859426499e-17 1.04962426184e-07)
(3.38342377329 -3.26789098252e-18 1.11631187234e-07)
(3.38342376655 1.470128854e-17 7.58037181849e-08)
(3.38342382704 9.13390678863e-18 7.58462567884e-08)
(3.38342377787 3.84254728762e-18 5.50960386332e-08)
(3.38342378467 3.03908664149e-18 5.87940098455e-08)
(3.38342373522 2.19153755017e-18 5.42043346727e-08)
(3.38342376533 -1.6313707935e-17 -3.79120224786e-09)
(3.38342370042 -2.35727607508e-17 -1.73208936456e-08)
(3.38342375926 3.59703373964e-18 6.85969593093e-10)
(3.38342373067 7.93104935698e-18 -3.11720258448e-08)
(3.38342372338 -8.35198164082e-18 -4.99938370076e-08)
(3.38342361587 -3.38260437795e-18 -5.70359551259e-08)
(3.38342363941 6.08134103453e-18 -6.44034423345e-08)
(3.38342360696 -4.52372180984e-18 -3.33566692424e-08)
(3.38342360575 -1.1031755057e-17 -3.84348144331e-08)
(3.38342361519 -1.00425183526e-17 -3.97883880929e-08)
(3.38342372268 2.08470427167e-18 -2.90305070049e-08)
(3.38342360583 -5.98956818401e-18 -1.13693368465e-07)
(3.3834237242 -6.90291795678e-18 -1.15497417041e-07)
(3.38342370233 2.21390081108e-18 -8.26566650669e-08)
(3.45298169927 -4.12307018574e-18 -9.0338782799e-08)
(3.45298166047 -4.35905479422e-18 -4.09412318023e-08)
(3.45298153762 -5.38935592325e-18 2.48242359722e-09)
(3.45298171739 -1.22617828974e-17 2.98576563997e-08)
(3.45298168188 -1.40334496489e-17 2.57527448738e-09)
(3.45298172033 -1.1828129454e-17 5.25045470374e-08)
(3.45298168713 -9.70980771133e-18 1.05407429667e-07)
(3.45298165533 -4.46311005881e-18 9.24747283532e-08)
(3.45298161962 -1.55753049318e-18 7.63774051811e-08)
(3.45298163662 -1.30940192426e-18 4.12490465091e-08)
(3.45298164008 -6.01502216965e-18 -1.57004956464e-09)
(3.4529812249 -1.59999772759e-17 3.37434650285e-08)
(3.45298176722 -6.60892469663e-18 5.6937145606e-08)
(3.4529816481 1.51416436978e-19 5.92697618989e-08)
(3.45298170439 1.24982005479e-18 7.16122459868e-08)
(3.45298164105 1.41015775272e-18 7.59693615753e-08)
(3.45298163092 1.36118338222e-18 8.86115262604e-08)
(3.45298164841 3.5710838542e-19 4.41440085949e-08)
(3.45298164694 -4.48544929006e-18 -5.72649449281e-09)
(3.45298164359 -7.67264652443e-18 -1.83037865266e-08)
(3.45298165193 -2.94912231543e-18 -8.06450733463e-09)
(3.45298166368 -1.74919647437e-18 -3.4962989619e-08)
(3.45298165541 -5.31752861843e-18 -4.05519886527e-08)
(3.45298164951 -5.47103085573e-18 -4.3104041624e-08)
(3.45298162854 -4.55535429656e-18 -5.43364428429e-08)
(3.45298164635 -6.83379633707e-18 -1.80848668192e-08)
(3.45298154972 -8.36283656858e-18 -1.85098137966e-08)
(3.45298154413 -8.21002966211e-18 -2.50191403951e-08)
(3.45298158017 -4.38382518159e-18 -5.18123600885e-08)
(3.45298154347 -3.05799554332e-18 -1.21087274501e-07)
(3.45298163685 -3.70408964915e-18 -1.50458819804e-07)
(3.45298162195 -2.94183252094e-18 -1.26408312124e-07)
(3.51880880753 -3.55442828004e-18 -5.23093108691e-08)
(3.51880877439 -5.76314478196e-19 1.75116395525e-08)
(3.51880843178 2.54484755135e-18 -3.75583908768e-08)
(3.51880889504 -2.47397878194e-17 -3.74374481355e-08)
(3.51880882638 -1.41786140818e-17 -1.85725722079e-08)
(3.51880879377 -8.53347272849e-18 7.60937237067e-08)
(3.51880879474 -4.90216346711e-18 1.19373805561e-07)
(3.51880877794 5.90672779759e-18 9.75613101734e-08)
(3.51880880413 5.88825761587e-19 7.55456004972e-08)
(3.5188088675 3.03610502936e-19 3.77648729997e-08)
(3.51880881392 -1.01106480869e-17 5.14711485425e-08)
(3.51880873411 -1.72301363007e-17 3.47698533126e-08)
(3.51880884164 -5.65965297894e-18 1.26574647878e-08)
(3.51880872066 -2.28862510351e-18 6.91825674488e-08)
(3.51880879943 -4.05687177638e-18 6.60882255859e-08)
(3.51880874589 -1.86594929217e-18 8.2483057067e-08)
(3.51880880384 -1.39059723578e-18 7.59072578592e-08)
(3.51880881807 -3.08211826561e-18 2.93870195483e-08)
(3.51880883479 -2.24358860562e-18 -3.13944969723e-09)
(3.51880881404 -1.81412909744e-19 -1.26660876835e-08)
(3.51880881071 -1.18436273878e-18 -7.85757458339e-09)
(3.51880882627 -5.80694934836e-18 -3.13335017396e-08)
(3.51880876513 -7.92073536429e-18 -2.94611162521e-08)
(3.51880877155 -6.73830518576e-18 -3.06267513788e-08)
(3.51880880247 -9.07119795625e-18 -6.6013700364e-08)
(3.518808772 -1.09118605165e-17 1.77513477039e-09)
(3.51880878423 -7.4767402695e-18 2.19944333547e-08)
(3.51880873363 -6.42047064927e-18 -4.2100801335e-08)
(3.51880884509 -6.47016996448e-18 -8.91980033461e-08)
(3.51880876452 -2.87402619053e-18 -1.32224005451e-07)
(3.51880881491 -2.64213153816e-18 -1.52681215978e-07)
(3.51880880334 -3.08672017577e-18 -1.48500553793e-07)
(3.58137851471 -2.95774540352e-18 -4.61931985563e-08)
(3.58137891725 2.4680394248e-18 4.67811829094e-08)
(3.58137880332 1.10253176121e-17 -4.87846914822e-08)
(3.5813788492 -1.47470558492e-17 -6.18782644911e-08)
(3.58137883471 3.68387731059e-18 2.53918233963e-09)
(3.58137853053 1.38425500585e-17 4.44699788552e-08)
(3.58137891566 -7.77056414217e-18 1.17294397338e-07)
(3.58137887058 -1.25428171291e-17 8.65669388412e-08)
(3.58137886807 -9.41258009983e-18 6.88519722629e-08)
(3.58137895397 4.15190510979e-18 5.3565899346e-08)
(3.58137856696 -1.35442624441e-17 6.30041090367e-08)
(3.58137885751 -3.22569094405e-17 3.51878521001e-08)
(3.58137886653 6.27923422427e-19 4.31487716429e-08)
(3.58137868405 1.79383214686e-18 7.20206671196e-08)
(3.58137891343 -1.71208343181e-17 6.06017211416e-08)
(3.58137856922 -2.99037983297e-18 5.16469821021e-08)
(3.58137897858 -3.42756116295e-18 2.8687722382e-08)
(3.58137892085 -1.28076336199e-17 2.10323833088e-08)
(3.58137891888 2.73778055182e-18 -2.64270278536e-09)
(3.58137891789 1.33758137178e-17 -1.6638536779e-08)
(3.58137891653 -2.86740020881e-18 1.60047814301e-09)
(3.58137892802 -1.66985791458e-17 9.5049654916e-09)
(3.58137871266 -8.17844684974e-18 -1.67214310895e-09)
(3.58137889497 1.64835088258e-18 -3.25022952483e-08)
(3.58137885014 -1.71294641573e-17 -4.01940355284e-08)
(3.58137852933 -2.21863409976e-17 -1.36760246549e-08)
(3.58137895568 3.39647423823e-18 -1.5344095478e-08)
(3.58137884925 3.0919404187e-18 -4.3222603295e-08)
(3.58137892018 -1.19077429979e-17 -7.1372129467e-08)
(3.58137855201 3.17775951741e-19 -1.20588382648e-07)
(3.58137896694 -3.0580422723e-18 -1.78683927268e-07)
(3.58137888312 -2.44147307683e-18 -9.66505381092e-08)
(3.64108216872 -4.87278785284e-18 -3.51036007643e-08)
(3.64108230124 1.01203877703e-17 -3.29432626049e-08)
(3.64108220858 3.33617795201e-18 -2.72201703257e-08)
(3.64108225941 -1.41972023827e-17 -1.11986882902e-08)
(3.64108198278 -2.07902887027e-18 3.03376418825e-09)