/*--------------------------------*- C++ -*----------------------------------*\
| =========                 |                                                 |
| \\      /  F ield         | OpenFOAM: The Open Source CFD Toolbox           |
|  \\    /   O peration     | Version:  v2012                                 |
|   \\  /    A nd           | Website:  www.openfoam.com                      |
|    \\/     M anipulation  |                                                 |
\*---------------------------------------------------------------------------*/
FoamFile
{
    version     2.0;
    format      ascii;
    class       scalarField;
    location    "5/lagrangian/kinematicCloud";
    object      d;
}
// * * * * * * * * * * * * * * * * * * * * * * * * * * * * * * * * * * * * * //


125311
(
8.92607975533e-05
8.82935487796e-05
0.000141151936787
0.000251551898788
0.000292361199626
0.000141181194378
5.16137780041e-05
7.53677921463e-05
0.000173234207784
0.000206592297137
0.000149742514501
0.000181674310442
9.76873558811e-05
0.000124287933059
9.11374097915e-05
0.000176885868922
0.000110147620375
0.000184061080233
0.000226113944033
0.00013446309204
0.00023852848756
0.000143177104708
0.000311771249231
0.000190185205273
0.000173719025189
7.19989907813e-05
0.000218775542429
0.000210743082588
0.000251455065286
0.000190097470172
0.000345302135974
0.000180968088398
0.000147147107668
0.000212332023315
0.00015987934702
0.000176834365433
9.28942100144e-05
0.000230457934076
0.000127781690452
0.000237105711277
0.000244675837629
0.000192527994672
0.000311553376676
0.000288685000829
0.000195087237176
0.000153390466209
0.000141078886515
0.000259050929713
0.000180200624069
0.000125971071163
0.000201861377663
0.000226025072209
0.000101940942374
0.000245722413563
0.000217736560446
0.000213872510367
0.000206358315986
0.000196768304053
0.000185596882894
0.000326574897266
0.000194345842698
0.000282575579603
0.000109790849055
0.0001556465421
0.00028647915563
0.000107907844253
0.000224576080778
0.000180910679247
0.000277375168977
0.00013748068897
0.000244804603093
0.000145113509909
0.000122462988137
0.000108869206673
0.000174115444419
0.000467319277796
0.000214534161867
0.000131824084957
0.000231498397065
0.000228094960744
9.28689692022e-05
0.0002592351829
0.000243590529707
0.000167185064663
0.000254007521499
0.000133305194122
0.000216168622266
0.00030235579252
0.000256818817098
0.000325808798484
0.00028250862042
0.000108464891906
0.000235722407341
0.000110028834159
0.000170735138568
0.000155316952561
7.56753461889e-05
0.000109284357408
0.000200205717376
0.000172511882738
0.000204920784587
0.000222820817142
0.00025570585763
0.000410870973515
0.000126486971208
6.68539528059e-05
0.000227963607737
7.21143246069e-05
7.98327854335e-05
0.000253258354974
0.000104163731142
0.000280346736289
0.000320934514218
0.000223312485773
0.000249630484657
0.000192409356885
0.000247329896114
0.000187753669443
0.000372406023284
0.000376058840154
6.41785964715e-05
0.000143353467504
0.000357809425125
0.000296679381182
0.000229940826395
0.000169074679937
0.000296598050738
8.71675455599e-05
0.000277230289228
0.000200194594102
0.000233710087891
0.000451707404288
0.000157866915834
0.000206524608379
0.000195887246551
0.000206872493656
0.000110397168104
0.000255006266596
0.00010825460745
0.000125530350661
0.000200200252879
0.000303353272358
0.000135273286912
0.000197568380355
0.000171615331418
0.000335828105507
0.000212402229462
0.000198369028399
0.000270281192187
0.000115071930228
0.000207173140592
0.000165070568816
0.000128932119525
0.000109810314765
6.77060367048e-05
0.000260989675277
9.3138252003e-05
0.000150466833802
0.000140749933285
0.000195370366551
0.000202828009915
0.000341885209562
0.000148111171024
0.000147757197976
8.6395522064e-05
0.000255588010206
0.000196938973184
0.000198526206304
7.99416591239e-05
0.000168208507251
0.000107756503747
0.000180720401446
0.000164292613743
0.000199901726697
0.000223071155695
0.000291065824316
0.000216868839627
0.000166978771497
0.00024452987236
0.000359629672425
0.000291689355555
0.000116829654397
0.000147595813263
0.000152526618373
0.000368111644988
0.000234618510464
7.97729183944e-05
4.93029802543e-05
9.9999194725e-05
0.000110601493687
0.000103388901989
9.70705275682e-05
0.000106316035617
0.000255661916192
0.000201993098128
0.000195724796547
0.000288227373324
8.09573877959e-05
0.000161928155722
0.000271400985985
0.000217823013555
0.000174445724282
0.000183397725142
0.00021134832419
0.000201445313082
0.000276807354398
0.000143726962279
0.000185242038652
0.000258920738845
0.000369731195445
4.74882193163e-05
0.000274649483742
0.000228010335712
0.000151180420762
0.000267390438747
7.39710465225e-05
7.10785184205e-05
4.72382415498e-05
0.000141155699123
0.000236318367934
0.000383594591924
0.0002352540942
0.000108573582758
9.27053876009e-05
0.000182513765833
0.000105910818401
0.000288782364308
0.000120241969884
0.000388842283671
0.000168904687012
0.000193944612517
0.000357735868129
0.000156195352723
0.000198666013444
0.000278740342301
0.00015137080138
8.46941941875e-05
0.000242530319372
0.000298300716119
0.000374394224555
0.00024371504423
0.000222144755052
0.00013791421051
0.000202172922614
0.000169364989729
0.000202036534708
0.000318601011374
0.00011006473302
0.000106504435704
0.000165552796857
0.00015599426539
0.000239491396061
0.000186128751039
0.000129382261175
0.000105440649435
7.56100627082e-05
6.57919072448e-05
0.000188203459674
9.84080506168e-05
0.00011704414367
0.000370885084979
0.000324201897825
0.000135027801645
9.25208481306e-05
0.000206640048413
0.000140758780118
0.000148933224663
0.000209536065758
0.000200201410194
0.000271589855497
0.000136500046444
0.000264691579593
0.000224662889424
0.000164879978698
6.42280559141e-05
0.000250895296044
8.65241507005e-05
0.000251084529038
0.000144536455274
0.000308572101687
2.99219216956e-05
0.000175678372111
0.000260764964831
0.000110781674593
0.000155655535115
0.000323447009331
0.000217329634912
0.000143742808777
0.000183671265006
0.000151016301721
0.000187355952294
0.000138118896283
9.44321407396e-05
0.000161791753055
0.000230879141815
0.000407520682156
0.000453916244625
0.00039486951505
0.000311975855483
0.000122552762545
0.000284668536878
0.000335595514287
0.000146563418368
0.000257711596169
0.000209472905823
0.000343005077602
0.000233159012622
0.000184300617846
0.000184633595038
8.49874429714e-05
0.000426077505035
0.000266463327053
0.000230079409239
0.000176393314925
0.000266555761804
0.000135796658478
0.000196424779353
8.31787523305e-05
0.000186220184461
0.000235978995736
0.000107053937986
8.14427149566e-05
0.000232100572452
0.000170952805454
0.000235928772228
0.000264638983443
0.000260114237434
0.000153852224229
4.46137468278e-05
0.000104882871255
0.000198970069592
0.000149445483149
0.000136200403061
0.000213853414854
0.00019111662847
8.36009198435e-05
0.000183962842841
0.000165935838146
0.000144933436122
4.23661132785e-05
0.000223503673864
8.63498137333e-05
0.000170881714116
0.000232199829702
0.000208464968006
0.000199957145795
8.88445870843e-05
0.000129988615351
9.54067761945e-05
0.000111969546581
0.000129175109344
0.000156482697267
0.000150308451651
0.000192586915716
0.000139993926389
0.00021399751094
0.000138109731332
0.000102377989814
0.000123316190826
9.76856083355e-05
7.63481744218e-05
0.00012761777818
0.000193554632392
0.000144648814462
0.000122345000622
0.000244225289388
0.000115298245552
0.000201828261826
0.000322131866834
0.000250466329389
0.000154818919588
0.000347087270195
0.000221518192199
0.000309306487515
9.88094642066e-05
0.000536669669165
0.000237642863244
0.000106217532808
0.000173563445136
0.000371098359919
0.000327550034891
0.000121644906088
0.000112245297229
0.000301954136324
0.000149955784248
0.000415495051982
0.000396039969828
0.000197559081843
0.000218907008756
0.000289917578745
4.91455886752e-05
9.48171373671e-05
0.000195845866034
0.00011410999006
0.000194696175697
0.000104423556431
0.000159984126332
0.000131119913442
0.00014378159738
0.000263449119271
0.000188244197873
0.000163664321772
0.000198218479324
0.000214872365181
0.000204869243113
0.000220696977446
0.000334419055955
0.000191306728719
0.000232059907494
0.000163776599231
0.000525169039264
0.000228251566058
0.000254376445607
0.000299848591067
0.00010493287383
0.000119770755336
0.000179129350567
9.65865664268e-05
0.000251397762202
0.000161334089756
5.92860008544e-05
0.000169385270223
0.000118879653413
4.93728859965e-05
0.000268371204878
0.000412916659462
0.000251247426812
0.000226757222945
0.000206453645311
0.000205400841431
0.00013140236921
0.000116099927528
9.90786121103e-05
0.000219370005157
0.000187759647298
0.000116201789783
0.000268528172757
0.000110734250293
8.00276093166e-05
8.21300399841e-05
0.000199430833322
0.000222993108539
0.000157862051055
0.00023414620778
0.000355740672453
0.000112827925792
0.000179267264546
0.000341526748254
0.000115305137258
0.000301798495832
0.000279996893251
9.84899761613e-05
0.000196121654668
0.000199482997871
4.85837745255e-05
0.000108144760669
0.00011426002462
0.00016721334411
7.20415687576e-05
0.000169406915894
0.00026021338218
0.000284190578591
0.000208340059136
0.000274915054399
7.42728640738e-05
8.8720325341e-05
0.000210228689259
0.000228389342685
0.000287568098131
9.4510483555e-05
0.000223055426253
0.000157048636672
0.000174792516748
0.000193371372582
0.000182519139319
0.000249826905539
0.000361422020581
0.000282300898463
0.000403666508312
0.000218293323145
0.000206519422061
0.000243407994351
0.000273338902907
0.000245186606866
0.000197996729612
0.000445644624715
0.000464973340001
0.000179945147648
7.30583495498e-05
0.000211787660247
0.000104018832329
0.000144277307976
0.00024540833254
8.60929098314e-05
0.000222850056386
0.000182009164574
0.000147828322719
0.000123000789541
0.000206316612134
0.000160144654468
0.000177831715172
0.000120468311615
0.000111321548541
0.000180869742061
9.57593824305e-05
9.69241880299e-05
0.000476571225422
8.78665031112e-05
0.000234966543106
0.000139439609055
0.000184324041443
0.000189727940091
0.000119780313199
0.000254465957936
0.000208999831388
0.000395034868907
0.000171034226788
7.61484698434e-05
0.000141659419559
0.00017298651519
0.000128974107325
0.000112156246752
0.000173349334716
0.000257067952275
0.000197347052506
0.00013669984557
0.000186919339194
0.000316438116506
0.000165889680277
0.000227618230622
0.000155377023731
0.000115148781873
0.000175686204779
0.000139554520881
0.000150500583183
0.000271706403016
0.000206752701796
0.000165036522969
0.000145679987706
0.000201129350557
0.000183757269085
9.22811982703e-05
0.000183928650093
8.28613891078e-05
0.000191316476419
8.99877985244e-05
0.000109191295283
6.92112810472e-05
7.75697097504e-05
0.000116032146501
0.000134450116794
8.68846780324e-05
0.000126387722871
9.15179650674e-05
6.01526339415e-05
6.92875309037e-05
0.000104023440305
0.000117504995782
0.000100675737755
0.000324543058631
0.000147762924331
0.000364193702664
0.000169110798244
9.79109711479e-05
0.000176417847448
0.000417421537013
0.000181397245461
0.000122651210956
0.000140107336773
0.000219388529598
0.000118479376719
0.00013888584904
0.000183531259642
9.9507671107e-05
0.000184714524175
0.000263831169019
0.000209535182084
0.000307346246953
0.000307862419656
9.72563603483e-05
0.000309580356316
0.000103730313725
0.000269430959309
0.000145116386419
0.000219249924541
0.000231820568999
0.000199589544778
0.000296197145058
0.000326568523236
7.43933916996e-05
0.000243851510415
0.000141128840727
7.63784404905e-05
0.000294817850532
0.000492908130453
0.000176257844319
0.000182977406186
8.00908443432e-05
0.000146588270865
0.000170026352528
0.000213929046605
8.5867316107e-05
0.000320400044278
0.000199552280394
0.000210112147384
0.00017135506599
0.000115867614649
0.00015612230831
0.000212969244357
0.000221825362336
0.000191127578458
0.000147048303201
0.000203897097979
0.000183831149533
0.000272311522468
0.000307813644539
0.0002279905427
0.000180651399579
0.000419045785576
0.000223220285729
0.000320355810082
0.000258038994119
0.000299357748247
0.00017813005478
0.000151932253447
0.00023637374561
0.000132392090903
0.000215642638455
0.000298609881381
0.000190459818357
0.000209662363937
0.000134950498391
0.000197642983136
0.000133570494085
0.000253285867112
0.000103169639298
0.000138652248646
0.000405870125341
0.000155363081811
0.000432618152393
0.000200268976922
6.83723307004e-05
0.000173925080295
0.000203788087248
0.000230706806871
0.00024750209724
0.00025629647344
0.000194096644224
0.000272844302852
0.000124249920933
0.000228286833033
0.000120512054045
0.000111472772999
0.000340542271215
0.000310477249877
0.000227444609617
0.000125723201771
0.00031780484321
0.000276473045017
0.000313051708596
0.000106651091938
0.000112187120305
0.000209170586496
0.00015807797191
9.02344593728e-05
0.000237571686606
9.25251544384e-05
0.000238260489198
0.000187971348073
0.000127254019382
0.000261801832717
0.00024194197411
0.000202949310385
0.000225237395004
0.000185806218665
0.000119826219155
0.000171752370037
0.000107980564819
0.000137064719331
0.000136574333034
0.000200842906099
0.000302213579296
0.000161585970002
0.000284637486264
0.000147709997556
0.000170739223907
0.00018718941283
0.000224551359047
0.000129834111587
0.000220905659807
4.65402957508e-05
0.000164880202623
0.000238473166939
0.000105318602327
0.000261638646682
0.000582930221298
0.000172092143456
0.000128507751353
0.000131527236402
0.00016305249243
0.000124779800715
0.000334170237321
0.000157021050209
0.000249767955271
0.000158568965923
0.00022367125207
0.00011141986503
0.000281046057998
0.000230841422481
8.75904637588e-05
0.00020758343912
8.30679040895e-05
0.00023244335852
4.16447012343e-05
0.000349866813067
0.000209936765407
0.000255882345731
7.42045522654e-05
0.000276618510378
0.000260536915187
0.000149119586819
0.000184768508119
0.000365395763855
0.000353369642143
0.000167214858286
0.000173851846692
0.000228761431241
0.000190914978751
5.42635790587e-05
8.39014068754e-05
0.000198682416002
9.81384033129e-05
0.000159787658873
7.58086454197e-05
0.000130206449204
0.000236211832401
0.000401144336351
0.000202643343449
0.000132975157125
0.000189307904749
0.000142681901418
0.000163854580375
6.82142358934e-05
0.000270052835994
0.000201045220939
0.000223304572686
0.000359599209609
0.000312546463263
0.000438437423734
0.000229034507993
0.000204337126845
0.000156835418149
0.000153228513685
0.000171841675286
0.000259251787184
0.00016662937908
0.000258693858328
5.48139891761e-05
0.000202208035147
0.000124744204196
0.000150850797506
0.000215653844917
0.000176578790144
0.000205024973243
0.000187164576264
0.000187361241347
8.0746332329e-05
0.000209867817801
0.000143966264591
0.000130670623771
0.000207984225726
0.000374492689893
0.000231876602685
0.000168751573069
0.000230300461824
6.75545346514e-05
0.0003387355773
0.000123667806518
0.000133799954859
0.000120761292641
0.000190095626344
0.000256638704386
0.000136597941406
0.000168466956794
0.000191226277189
0.000109274439544
0.00022138206817
5.80911878449e-05
0.000274867024685
0.00017404924313
0.000576590778712
0.000167765355845
0.000219577948515
4.48808968806e-05
0.000315732030156
5.90745780444e-05
0.000152553595113
0.000271725753197
0.000144915753122
0.000312647801455
0.000291728230833
0.000263816877629
0.000260609970517
7.54630993518e-05
0.00016464563049
0.000324426408082
6.79046648101e-05
0.000339513282298
5.33337404243e-05
0.000139259900335
6.99581451755e-05
0.000288892294355
0.000250258512849
0.000333431372352
0.000195963689236
0.000133170690465
0.000198592843564
0.000227799455761
0.000325935906703
6.91412951502e-05
0.000183994114988
0.00019699564302
0.000230688936896
0.000171446138885
0.000372421462038
0.000269291173151
0.000137813424496
0.000100595760136
0.000174548658431
0.000189283355599
0.000284360433144
0.0002091036475
0.000105209997838
0.000274194953841
0.000160910736238
0.000256652783994
0.000306338132426
0.00012917753259
0.000175920354363
0.000282101975714
0.000254127028429
0.000177755999903
0.000167623867778
0.000163302828906
0.000209502000974
0.000326521496911
9.50313312131e-05
0.000205703238381
0.000143760016217
0.000316230855583
0.000151537046418
0.000180836127648
0.000259593455943
0.000124090190221
0.000191060784238
0.000162988389695
6.12859909398e-05
0.000257223083792
0.000269802443899
0.000310424974753
0.000375098541465
0.000193298010154
0.000202978987761
0.000295371349755
0.000222810812775
0.000252016065375
0.000163351486666
0.000187620209025
0.000160761416396
0.000165950116288
0.000286266869263
0.0001232444564
0.000355634874413
0.000292134735821
0.000193119041114
0.000240513924246
0.000252363229182
0.000254449079034
9.11013411572e-05
0.000113456110324
0.000166072893146
0.000236609099232
0.00035544917102
0.000176815825423
0.000355197784001
0.000303978626544
0.000336510524937
0.000219104707795
6.4138013254e-05
0.00021372827994
0.000394515190204
0.000164586959953
0.000122533803279
0.000166211723251
9.25291212703e-05
0.000444520293755
0.000361436503582
0.00013721696178
0.000243726387768
0.000113808946048
0.000290869495953
0.000304070805358
0.000214714768129
0.000138231326494
0.000138769762304
3.40580031909e-05
0.00028383764683
0.000375581957338
0.000102785132308
0.000123997101307
0.000114977897957
9.15221971519e-05
0.000108617290324
7.30619450264e-05
6.41561547437e-05
0.000188323706176
0.000297864741155
0.000365076294147
0.000156468244501
0.000168249305134
0.000136065181562
0.000214414993973
0.000188733014513
0.000111792315057
0.00013210870853
0.000342284901356
0.00016002575941
0.00030606021381
0.000324228976517
0.000188503132605
0.000164086619811
0.000132289815663
0.000244495081454
0.000177565113309
0.000177720896852
0.000184453860251
0.000183867789383
0.000168798027484
0.000452568122547
0.000230822150884
6.94145524381e-05
0.000216350612225
0.000133450909886
0.000212253306699
0.000204156301565
0.000168647151846
0.000232566137701
0.000403708822966
0.000161651376419
0.000309964622237
0.00031886740381
0.000319489970093
0.000157281213964
0.000192787364498
0.000257731782762
9.99768673248e-05
0.00022860886673
0.000154635916909
4.91823238377e-05
0.000162314960467
0.000199200120604
0.000199147357712
7.93963708648e-05
0.000118269747885
0.000143176333197
0.000188130299121
0.000113170676961
0.00010959824497
0.000157992391816
0.000146455113542
0.000200839808038
0.000295852314025
0.000212834546947
0.000214042443316
3.14019587991e-05
0.000200130367224
0.000220316913517
0.00021853276763
0.000258272656205
0.000240528444422
0.000112412304774
0.000240079418012
0.000142273647004
0.00025436727337
0.000153211657269
0.000460125181773
0.00019466075991
0.000247636233566
0.000203421563942
8.73854238718e-05
0.000125396503858
0.000119312421599
0.000202933481608
9.66955060006e-05
0.000117849327134
0.000224599534254
0.000479414015986
0.000151481992914
0.000207578576739
0.00011140344611
0.000256737915993
0.000204470429944
0.000367202444658
0.000188166800273
6.27099632665e-05
0.000299455010158
0.000136038335088
0.000175364634865
0.000108596891201
0.00010952560923
0.000319207191026
0.000192608560723
0.000134581664568
0.000271242208609
0.000206305709415
0.000139107133729
0.000131929527124
0.000248805710306
8.93216902921e-05
0.000172527872393
0.000224807506866
0.000218905573789
0.000219594225077
0.000120032308127
0.000125954271275
0.000256060562195
0.000217775436304
0.000102901635743
0.000152861313797
7.41118207775e-05
0.00014163549462
0.000169669819799
0.000131525037197
0.000120962332063
0.000208362501712
0.000157271843005
0.000272321606902
0.000211132078628
0.000277309518427
0.000117665764926
0.000343130953306
0.000121648917799
0.000258225465193
9.35510443366e-05
0.000156014958893
0.00025044330491
0.000238978381164
0.000280453781628
6.21416773856e-05
9.89373372748e-05
0.000215814348553
0.0001402665903
0.000388295843197
0.000261325579286
7.45445678999e-05
0.000175585121428
0.000419440053711
0.000200014421581
0.000140871186733
0.000148049180885
0.000136755814193
0.000207711626823
0.000164836439351
0.000117581119989
0.000243982760697
0.000226445614649
0.000170075559122
0.000174591716066
0.000398136249691
0.000103189510128
9.67257384164e-05
0.000201269098921
0.000209693846531
0.000355514668734
0.000261953237684
0.000518376413597
0.000434371718231
0.00023694001293
0.00015067681644
0.000190267455778
0.000165328932925
0.000203515955041
0.000142481653889
0.000183319678379
0.000263256928241
0.000110225830107
0.000177503777346
0.000216385510704
6.88943667335e-05
0.000129546547563
0.000204859617437
0.000217174268048
0.000243957852012
0.000111715648003
0.000145588795886
0.000160396724642
0.000172604091742
0.00019412940063
0.000194733985523
0.000168781418693
0.00025278706686
0.000299881005575
9.78206501721e-05
0.000168700555654
0.000133574551396
0.000216702030397
0.000214806163836
0.000195112029864
5.60485689317e-05
0.000162585116419
0.000141149296154
0.000218223114216
9.7175107764e-05
0.000173122859406
0.000133946295928
0.000201837905015
0.000183129447394
0.000224529621907
0.000289320198038
0.000110991220875
0.000384607861505
0.000180870097561
7.10402488177e-05
0.000306843926288
0.000254790088986
0.000266050883186
0.000310539043475
0.000197238521631
0.000313303812598
0.000134595238849
8.2806004427e-05
8.52832250009e-05
7.14566050085e-05
0.00011101469052
6.76246974527e-05
0.000191889654545
0.000151075860591
5.86279324068e-05
0.000125869184465
0.000225700376629
0.000187498189013
6.37519877101e-05
0.000160593295203
0.000198003323743
0.000105753391259
0.000162993775449
0.000118535021546
4.14877192264e-05
0.000169689415606
0.000272888418817
0.000212065904618
0.000307615031785
0.000276883253365
0.000203419002577
0.000216270203296
0.000279369641098
0.000272152378793
0.000274039856154
0.000199632559846
0.000152457243641
0.000127579107838
0.000140516232926
0.000157861265638
0.000369940903535
0.000135116704556
0.000176318314868
0.000104070004288
0.000121394697506
0.000233143668069
0.000153765491437
0.000173919034785
0.000440309220084
9.66378328339e-05
0.000215205874508
0.000276496099083
0.000282959502325
0.000154581797425
0.000295705998787
0.000140888372834
0.000396005164931
0.000317122189401
0.000213204009502
0.000101257417353
0.000240570925011
0.000329954805761
0.000192421724436
0.000103543023406
0.000351945780653
0.000329425685723
0.000208306095675
0.000216523003984
0.000373567289918
0.000188248191383
0.000199821971082
0.000150336051415
0.00016197450259
0.000203538366922
0.000140129667702
0.000198045306317
0.000252678221921
8.08003543105e-05
0.0003179244746
6.30965556013e-05
0.000151261129241
0.000325468299796
0.000132495542919
0.000566940365176
0.000414387892039
0.000124987588669
0.000187606238629
0.00026551271428
0.000221080705087
0.000242969772623
0.000279874258688
0.000107439985765
0.000304188855866
0.000331529997013
0.000158877881739
0.00033194053647
0.000292057272177
0.000245865366695
0.000104949897163
6.66397820358e-05
0.000231755423183
0.000166864383613
0.000179091537757
0.000109706139666
0.000374178009986
0.000215144942636
0.000197651622656
0.000174090995424
0.000407271911667
8.49479932247e-05
0.000334782943606
0.000158297496653
0.000193649710857
0.000170840937297
0.000177529079361
0.000207268694625
6.39383880584e-05
0.000144065774726
0.000156046045636
9.14100138771e-05
0.000248302681063
0.000259315357582
0.000247988967713
9.67917110358e-05
0.00027791472201
0.000149409197351
9.95083805353e-05
0.000162796368216
0.000182559051594
0.000162304815484
0.000275451277734
0.000130563591688
0.000194651677021
0.000194097714107
0.000125116384683
0.00016584622178
0.000383336779932
0.000282803990565
0.000341065680218
0.000172645119863
0.000239283601029
0.000109085831268
0.000206893775749
0.000189689879245
0.00031190468001
0.000276966428664
0.000220010984832
0.000244128401134
0.000298414058767
0.000172728132254
0.000152558806344
0.000169250834907
0.00018011653108
0.000205442967126
0.000187586355234
0.000169622802039
0.000216989600579
0.000325818927867
0.000235723796811
0.000140611370563
6.09347411597e-05
0.000142941433066
0.000129081748418
0.000162716444017
0.0002463947687
3.68883879263e-05
7.88425723565e-05
0.00028533767185
5.94714182283e-05
0.000176097143935
0.000167301241669
0.000113680029034
0.000139169955455
0.000104557447791
0.000219209243224
0.000217705396414
0.000175004581652
0.000299318170932
0.000276391995033
0.000149484445288
0.0002168811301
0.000264220509824
0.000139944804735
0.000202557345525
0.00021253316054
0.000205352311787
0.000176359543415
0.000125709385904
0.000152604860751
0.000274944022505
0.000180213092792
0.000401246606555
0.000285538990975
0.000545030541013
0.000217733391899
0.000169354774159
0.000252695123273
0.000127349546589
9.93955544622e-05
0.000181660505973
0.00027197497924
0.000230033189944
0.000285290740267
6.14458970892e-05
0.000215451195513
0.000179460585857
0.000160015939731
0.000296913469615
0.000152067512045
0.000173917592841
0.00029180452499
0.000251144886509
0.000128710142631
0.000147215220264
0.000120207450719
0.000161083363674
0.000179393489327
0.000157974041964
0.000452423891469
0.00019279409222
0.000155482896915
0.00020987714862
0.000262795586226
0.000119414743079
0.000114335469543
0.000142954376751
0.000286060244555
0.000169038656801
0.000140099699683
0.000297916089497
0.000272789655694
0.00022343211965
0.000216165978125
0.000341400190647
0.000145561388107
0.000278710133377
9.99675453858e-05
0.000167423750776
0.000304368447029
0.000295694772853
0.000146990906649
0.000170178447049
0.000275800152911
0.000193117491387
0.000296005964227
0.00019648800278
0.00020854929042
0.000113610936998
0.000135627482363
0.000239029075724
0.000144410460385
0.00013169047652
0.000244008533369
0.00012707481748
0.000291560098212
0.000340412597076
0.000169624568059
8.46748557318e-05
0.000106710725512
6.84461505255e-05
0.000289613055842
0.000277482691785
0.00022959753976
0.000212914888656
0.000230266834806
0.000174638698086
0.000195864732444
0.000299955493256
0.000350065891114
0.000239781533444
0.000135592585392
0.000285532097442
0.000209404557951
0.000146067280214
0.000224041955829
0.000204265890428
0.000256212660699
0.000217992163349
0.000289845111341
0.000209760105032
0.000119316665691
0.000120645148246
0.000240268993901
0.000146394766539
0.000160852137269
0.000324958532725
0.000239101684503
0.000293314887023
0.000267615102395
0.00015131807188
0.000428614365098
0.000202932944781
0.000214980833188
0.000147025700323
0.000251410659446
0.000146050093885
0.00013212708497
0.000132743184524
0.000147267115411
0.000218725617431
0.000160068841591
0.000182552027137
0.000167539534552
0.00021634467215
0.000299324240982
0.000145893370286
0.000218371273034
0.000135430235697
0.000220847848332
0.000104298051935
0.000198182172872
0.000160028789823
0.000128165987823
0.000178904354118
0.000202815051034
0.000208390097886
0.000271272638354
0.000141781601044
0.000283499688836
0.000191438863479
0.000259776744395
0.000176699941509
0.000197526323843
0.000147156211836
0.000100505166978
0.000221094130107
0.000225694450911
0.000112004619047
0.000125396039054
0.000178381812621
0.000131898012525
0.000210379341823
3.33326176363e-05
0.000226003331819
0.000195896583293
0.000272440757489
0.000218492263615
0.000196331783703
0.00019723762901
0.000111397566497
0.000173506036367
0.00029513095477
0.000138250231151
0.000149587683015
0.000266044010362
7.20961534106e-05
0.000402621662318
0.000147224190275
0.000363459102498
0.000156354505504
0.000176917804492
0.000359734371929
0.000154087856482
0.000200530127405
9.40192131916e-05
0.000187696404288
7.86255636839e-05
0.000100866326628
0.000212621715277
0.000379797791153
0.000462688355639
0.000323295709399
0.000274957263587
0.000100574941221
0.000231749035733
6.25945187545e-05
0.000321164127607
0.00022184732755
0.000130499346622
0.00025189999388
0.000132089620578
0.000211224050277
5.13450983212e-05
0.000107969586803
0.000278277196563
0.000134462003547
0.000108722499608
0.000145650286463
0.000177507974319
0.000184291106338
0.000202182610439
8.27472672586e-05
9.07409158969e-05
6.84893803394e-05
6.21060552003e-05
0.000116289479215
5.8691674134e-05
0.000369885524773
0.000244460541754
0.000237108791904
0.000330618511306
0.000305366018251
0.000292870086898
0.000257323002989
0.000178874942994
0.000297625257413
0.000254899205067
7.9638512619e-05
0.000209535542121
0.000206309318985
0.000157907036412
0.000229632534037
0.000191242632508
0.000245752781782
0.000315879518309
0.000309942197674
0.000244132717968
0.000183241899824
0.000275239136005
0.000239440410286
0.000300257073264
0.00032669495851
0.00013626743391
0.000319959150219
0.000115597589752
0.000295426579031
0.000246983649674
0.000315366911644
0.000189210598137
0.000206698548981
0.000245623169902
0.000307676142757
0.000115549889912
0.000264371322887
0.0001156517815
0.000128990662121
0.000338505026672
7.92141889284e-05
0.000157382555062
0.000159020004471
0.000158458131017
0.00014421983374
0.000241600609043
0.000199812711515
0.000194806948363
0.000343175066971
0.00012675684495
0.000256462671668
0.000271399676754
0.000328423353885
0.000171990862029
0.000185206777386
0.000329551612321
0.000198039946162
0.000140604280155
0.000237526078742
0.000275481738074
9.91745198056e-05
0.000242107064843
0.000129783352022
0.000103728006451
7.79821550979e-05
0.000279930893428
6.45873957044e-05
0.000213901028368
0.000114558944941
8.46535364514e-05
0.000120437797679
0.000199500241152
8.85921212959e-05
0.000128788301258
0.000107210939934
7.70095270805e-05
0.000513832698579
0.000114946941359
7.17236924724e-05
0.000122777938844
0.000242915671261
0.000145391928115
0.000122435812401
9.28461870081e-05
0.000238706365841
0.000126243141822
0.00027320686303
0.000264829741614
0.000299498010002
0.000180783182676
0.00011230362669
0.000142385430333
0.000204305227423
0.000141564171939
0.000239217840139
0.000160064139462
0.000254954131473
8.22021451783e-05
0.000223895885672
0.000167429117613
0.000172485853455
0.000230326656457
0.000134142629026
0.000221341822688
0.0002864124344
0.00011174654481
0.000119118952484
0.000207319134214
0.000200909799072
8.04031828994e-05
0.000192157324059
0.000210984694053
8.08261038718e-05
0.000139713543252
0.000112274842646
7.35920437064e-05
0.000278863314094
0.000266165663485
0.000273945500868
0.000577660610479