/*--------------------------------*- C++ -*----------------------------------*\
| =========                 |                                                 |
| \\      /  F ield         | OpenFOAM: The Open Source CFD Toolbox           |
|  \\    /   O peration     | Version:  v2012                                 |
|   \\  /    A nd           | Website:  www.openfoam.com                      |
|    \\/     M anipulation  |                                                 |
\*---------------------------------------------------------------------------*/
FoamFile
{
    version     2.0;
    format      ascii;
    class       labelField;
    location    "5/lagrangian/kinematicCloud";
    object      origId;
}
// * * * * * * * * * * * * * * * * * * * * * * * * * * * * * * * * * * * * * //


125311
(
0
1
2
3
4
5
6
7
8
9
10
11
12
13
14
15
16
17
18
19
20
21
22
23
24
25
26
27
28
29
30
31
32
33
34
35
36
37
38
39
40
41
42
43
44
45
46
47
48
49
50
51
52
53
54
55
56
57
58
59
60
61
62
63
64
65
66
67
68
69
70
71
72
73
74
75
76
77
78
79
80
81
82
83
84
85
86
87
89
90
91
92
93
94
95
96
97
99
100
236
240
242
248
250
251
252
253
254
255
256
257
258
259
260
263
265
271
272
273
274
275
276
277
278
279
280
281
282
283
284
285
303
309
310
311
442
443
444
445
446
447
448
449
450
451
452
453
454
455
456
457
458
459
460
461
462
463
464
465
466
467
468
469
470
471
472
473
474
475
476
477
478
479
480
481
482
483
484
485
486
487
488
489
490
491
492
493
523
524
525
527
529
650
651
652
653
654
655
656
657
658
659
660
661
662
663
664
665
666
667
668
669
670
671
672
673
674
675
676
677
678
679
680
681
682
683
684
685
686
687
688
689
690
691
692
693
694
695
696
697
698
699
700
701
702
703
704
705
706
722
723
724
725
726
727
728
732
859
860
861
862
864
866
867
868
869
870
871
872
873
874
875
876
877
878
879
880
881
882
883
884
885
886
887
888
889
890
891
892
893
894
895
896
897
898
899
900
901
902
903
904
905
906
907
908
909
910
911
912
913
914
915
916
917
918
919
920
921
922
923
924
925
926
927
928
929
930
931
932
933
934
935
936
938
939
940
941
942
944
945
946
947
948
949
950
951
955
957
958
1040
1041
1066
1067
1068
1069
1071
1075
1079
1082
1087
1092
1093
1094
1095
1096
1097
1098
1099
1100
1101
1102
1103
1104
1105
1106
1107
1108
1109
1110
1111
1112
1113
1114
1115
1116
1117
1118
1119
1120
1121
1122
1123
1124
1125
1126
1127
1128
1129
1130
1131
1132
1133
1134
1135
1136
1137
1138
1139
1140
1141
1142
1143
1144
1145
1146
1147
1148
1149
1150
1151
1152
1153
1154
1155
1156
1157
1158
1159
1160
1161
1162
1163
1164
1165
1166
1167
1168
1169
1178
1179
1274
1275
1276
1277
1279
1283
1284
1285
1286
1287
1288
1289
1290
1291
1294
1296
1297
1298
1299
1300
1301
1302
1303
1304
1305
1306
1307
1308
1309
1310
1311
1312
1313
1314
1315
1316
1317
1318
1319
1320
1321
1322
1323
1324
1325
1326
1327
1328
1329
1330
1331
1332
1333
1334
1335
1336
1337
1338
1339
1340
1341
1342
1343
1344
1345
1346
1347
1348
1349
1350
1351
1352
1353
1354
1355
1356
1357
1358
1359
1360
1361
1362
1363
1364
1365
1366
1367
1368
1369
1370
1371
1372
1373
1374
1375
1376
1377
1378
1379
1381
1382
1385
1386
1388
1389
1390
1392
1393
1395
1456
1457
1458
1465
1475
1480
1482
1483
1484
1485
1486
1487
1488
1489
1490
1491
1492
1493
1494
1495
1496
1497
1498
1499
1500
1501
1502
1503
1504
1505
1506
1507
1508
1509
1510
1511
1512
1513
1514
1515
1516
1517
1518
1519
1520
1521
1522
1523
1524
1525
1526
1527
1528
1529
1530
1531
1532
1533
1534
1535
1536
1537
1538
1539
1540
1541
1542
1543
1544
1545
1546
1547
1548
1549
1550
1551
1552
1553
1554
1555
1556
1557
1558
1559
1560
1561
1562
1563
1564
1565
1566
1567
1568
1569
1570
1571
1572
1573
1574
1575
1576
1577
1578
1579
1580
1581
1582
1583
1584
1585
1586
1591
1594
1664
1665
1666
1667
1668
1669
1670
1671
1673
1674
1675
1676
1678
1679
1680
1681
1684
1688
1690
1691
1692
1693
1694
1695
1696
1697
1698
1699
1700
1701
1702
1703
1704
1705
1706
1707
1708
1709
1710
1711
1712
1713
1714
1715
1716
1717
1718
1719
1720
1721
1722
1723
1724
1725
1726
1727
1728
1729
1730
1731
1732
1733
1734
1735
1736
1737
1738
1739
1740
1741
1742
1743
1744
1745
1746
1747
1748
1749
1750
1751
1752
1753
1754
1755
1756
1757
1758
1759
1760
1761
1762
1763
1764
1765
1766
1767
1768
1769
1770
1771
1772
1773
1774
1775
1776
1777
1778
1779
1780
1781
1782
1783
1784
1785
1786
1787
1788
1789
1790
1791
1792
1793
1872
1873
1874
1875
1876
1877
1878
1879
1880
1881
1882
1883
1884
1885
1886
1887
1888
1889
1890
1891
1892
1893
1894
1895
1896
1897
1898
1899
1900
1901
1902
1903
1904
1905
1906
1907
1908
1909
1910
1911
1912
1913
1914
1915
1916
1917
1918
1919
1920
1921
1922
1923
1924
1925
1926
1927
1928
1929
1930
1931
1932
1933
1934
1935
1936
1937
1938
1939
1940
1941
1942
1943
1944
1945
1946
1947
1948
1949
1950
1951
1952
1953
1954
1955
1956
1957
1958
1959
1960
1961
1962
1963
1964
1965
1966
1967
1968
1969
1970
1971
1972
1973
1974
1975
1976
1977
1978
1979
1981
1982
1983
1984
1985
1986
1988
1989
1991
1992
1993
1994
1995
1996
1997
1998
1999
2002
2003
2007
2011
2019
2027
2080
2082
2083
2084
2085
2086
2087
2088
2089
2090
2091
2092
2093
2094
2095
2096
2097
2098
2099
2100
2101
2102
2103
2104
2105
2106
2107
2108
2109
2110
2111
2112
2113
2114
2115
2116
2117
2118
2119
2120
2121
2122
2123
2124
2125
2126
2127
2128
2129
2130
2131
2132
2133
2134
2135
2136
2137
2138
2139
2140
2141
2142
2143
2144
2145
2146
2147
2148
2149
2150
2151
2152
2153
2154
2155
2156
2157
2158
2159
2160
2161
2162
2163
2164
2165
2166
2167
2168
2169
2170
2171
2172
2173
2174
2175
2176
2177
2178
2179
2180
2181
2182
2183
2184
2185
2186
2187
2188
2189
2190
2191
2192
2194
2196
2199
2200
2202
2203
2206
2288
2289
2290
2291
2292
2293
2294
2295
2296
2297
2298
2299
2300
2301
2302
2303
2304
2305
2306
2307
2308
2309
2310
2311
2312
2313
2314
2315
2316
2317
2318
2319
2320
2321
2322
2323
2324
2325
2326
2327
2328
2329
2330
2331
2332
2333
2334
2335
2336
2337
2338
2339
2340
2341
2342
2343
2344
2345
2346
2347
2348
2349
2350
2351
2352
2353
2354
2355
2356
2357
2358
2359
2360
2361
2362
2363
2364
2365
2366
2367
2368
2369
2370
2371
2372
2373
2374
2375
2376
2377
2378
2379
2380
2381
2382
2383
2384
2385
2386
2387
2388
2389
2390
2391
2392
2395
2396
2398
2400
2402
2405
2407
2412
2468
2497
2498
2499
2500
2501
2502
2503
2504
2505
2506
2507
2509
2510
2511
2512
2513
2514
2515
2516
2517
2518
2519
2520
2521
2522
2523
2524
2525
2526
2527
2528
2529
2530
2531
2532
2533
2534
2535
2536
2537
2538
2539
2540
2541
2542
2543
2544
2545
2546
2547
2548
2549
2550
2551
2552
2553
2554
2555
2556
2557
2558
2559
2560
2561
2562
2563
2564
2565
2566
2567
2568
2569
2570
2571
2572
2573
2574
2575
2576
2577
2578
2579
2580
2581
2582
2583
2584
2585
2586
2587
2588
2589
2590
2591
2592
2593
2594
2595
2596
2597
2598
2599
2600
2601
2602
2605
2607
2608
2613
2615
2617
2618
2619
2621
2623
2624
2625
2704
2707
2709
2710
2711
2713
2714
2716
2719
2721
2722
2723
2724
2726
2727
2728
2729
2730
2731
2732
2733
2734
2735
2736
2737
2738
2739
2740
2741
2742
2743
2744
2745
2746
2747
2748
2749
2750
2751
2752
2753
2754
2755
2756
2757
2758
2759
2760
2761
2762
2763
2764
2765
2766
2767
2768
2769
2770
2771
2772
2773
2774
2775
2776
2777
2778
2779
2780
2781
2782
2783
2784
2785
2786
2787
2788
2789
2790
2791
2792
2793
2794
2795
2796
2797
2798
2799
2800
2801
2802
2803
2804
2805
2806
2807
2808
2809
2810
2812
2813
2814
2815
2816
2817
2818
2820
2821
2822
2823
2824
2825
2827
2828
2829
2830
2834
2843
2853
2914
2915
2917
2921
2922
2923
2924
2925
2926
2927
2928
2930
2931
2932
2933
2934
2935
2936
2938
2939
2940
2941
2942
2943
2944
2945
2946
2947
2948
2949
2950
2951
2952
2953
2954
2955
2956
2957
2958
2959
2960
2961
2962
2963
2964
2965
2966
2967
2968
2969
2970
2971
2972
2973
2974
2975
2976
2977
2978
2979
2980
2981
2982
2983
2984
2985
2986
2987
2988
2989
2990
2991
2992
2993
2994
2995
2996
2997
2998
2999
3000
3001
3002
3003
3004
3005
3006
3007
3008
3009
3010
3011
3012
3013
3014
3015
3016
3017
3018
3019
3020
3021
3022
3023
3024
3025
3026
3027
3028
3029
3030
3031
3032
3033
3034
3035
3036
3037
3038
3039
3040
3041
3043
3048
3053
3054
3061
3120
3121
3122
3126
3132
3135
3138
3139
3140
3143
3146
3147
3148
3149
3150
3151
3152
3153
3154
3157
3158
3159
3160
3161
3163
3164
3165
3166
3167
3168
3169
3171
3172
3173
3174
3175
3176
3177
3178
3179
3180
3181
3182
3183
3184
3185
3186
3187
3188
3189
3190
3191
3192
3193
3194
3195
3196
3197
3198
3199
3200
3201
3202
3203
3204
3205
3206
3207
3208
3209
3210
3211
3212
3213
3214
3215
3216
3217
3218
3219
3220
3221
3222
3223
3224
3225
3226
3227
3228
3229
3230
3231
3232
3233
3234
3235
3236
3237
3238
3239
3240
3241
3242
3243
3244
3245
3246
3247
3248
3249
3250
3251
3253
3256
3263
3268
3339
3345
3346
3348
3349
3353
3354
3355
3357
3359
3361
3362
3364
3365
3366
3367
3368
3369
3370
3374
3375
3376
3377
3378
3379
3380
3381
3382
3383
3384
3385
3386
3387
3388
3389
3390
3391
3392
3393
3394
3395
3396
3397
3398
3399
3400
3401
3402
3403
3404
3405
3406
3407
3408
3409
3410
3411
3412
3413
3414
3415
3416
3417
3418
3419
3420
3421
3422
3423
3424
3425
3426
3427
3428
3429
3430
3431
3432
3433
3434
3435
3436
3437
3438
3439
3440
3441
3442
3443
3444
3445
3446
3447
3448
3449
3450
3451
3452
3453
3454
3455
3456
3457
3459
3460
3461
3462
3463
3464
3465
3467
3468
3469
3470
3471
3472
3474
3475
3477
3478
3479
3480
3481
3482
3483
3498
3540
3543
3544
3546
3547
3553
3554
3555
3560
3562
3565
3566
3567
3568
3569
3570
3571
3572
3574
3575
3576
3577
3578
3579
3581
3582
3584
3585
3586
3587
3588
3589
3590
3591
3592
3593
3594
3595
3596
3597
3598
3599
3600
3601
3602
3603
3604
3605
3606
3607
3608
3609
3610
3611
3612
3613
3614
3615
3616
3617
3618
3619
3620
3621
3622
3623
3624
3625
3626
3627
3628
3629
3630
3631
3632
3633
3634
3635
3636
3637
3638
3639
3640
3641
3642
3643
3644
3645
3646
3647
3648
3649
3650
3651
3652
3653
3654
3655
3656
3657
3658
3659
3660
3661
3662
3663
3664
3665
3666
3667
3668
3669
3670
3671
3672
3673
3674
3675
3677
3678
3679
3680
3681
3682
3683
3684
3685
3686
3687
3688
3689
3690
3691
3692
3693
3694
3695
3696
3697
3698
3700
3702
3703
3706
3707
3708
3709
3710
3711
3715
3716
3756
3758
3759
3766
3770
3771
3772
3773
3777
3778
3779
3780
3782
3784
3785
3787
3788
3791
3792
3793
3794
3795
3796
3797
3798
3799
3802
3803
3805
3806
3807
3808
3809
3810
3811
3812
3813
3814
3816
3818
3819
3820
3821
3822
3823
3824
3825
3826
3827
3828
3829
3830
3831
3832
3833
3834
3835
3836
3837
3838
3839
3840
3841
3842
3843
3844
3845
3846
3847
3848
3849
3850
3851
3852
3853
3854
3855
3856
3857
3858
3859
3860
3861
3862
3863
3864
3865
3866
3867
3868
3869
3870
3871
3872
3873
3874
3875
3876
3877
3878
3879
3880
3881
3882
3883
3884
3885
3886
3887
3888
3889
3890
3891
3892
3893
3894
3895
3896
3897
3898
3899
3900
3901
3902
3903
3904
3905
3907
3908
3909
3910
3911
3912
3913
3914
3915
3916
3917
3918
3919
3920
3921
3922
3923
3924
3925
3928
3929
3931
3940
3943
3947
3949
3991
3993
3994
3997
4000
4004
4005
4006
4008
4011
4012
4014
4015
4016
4017
4018
4019
4020
4021
4022
4023
4024
4026
4027
4028
4029
4030
4031
4033
4034
4035
4036
4037
4038
4039
4040
4041
4042
4043
4044
4045
4046
4047
4048
4049
4050
4051
4052
4053
4054
4055
4056
4057
4058
4059
4060
4061
4062
4063
4064
4065
4066
4068
4069
4070
4071
4072
4073
4074
4075
4076
4077
4078
4079
4080
4081
4082
4083
4084
4085
4086
4087
4088
4089
4090
4091
4092
4093
4094
4095
4096
4097
4098
4099
4100
4101
4102
4103
4104
4105
4106
4107
4108
4109
4110
4111
4112
4113
4115
4116
4117
4118
4120
4121
4122
4123
4124
4125
4126
4127
4128
4129
4130
4131
4132
4133
4134
4135
4136
4137
4138
4139
4140
4141
4142
4143
4144
4145
4146
4147
4148
4149
4150
4151
4152
4153
4154
4155
4156
4157
4158
4159
4212
4215
4216
4221
4222
4224
4225
4226
4228
4229
4231
4232
4233
4235
4236
4238
4239
4240
4241
4242
4243
4244
4245
4246
4247
4249
4250
4251
4252
4253
4254
4255
4257
4258
4259
4260
4261
4262
4264
4265
4267
4268
4270
4271
4272
4273
4274
4275
4276
4277
4278
4279
4280
4281
4282
4283
4284
4285
4286
4287
4288
4289
4290
4291
4292
4293
4294
4295
4297
4298
4299
4300
4301
4302
4303
4304
4305
4306
4307
4309
4310
4311
4312
4313
4314
4315
4316
4317
4318
4319
4321
4322
4323
4324
4325
4326
4327
4328
4329
4330
4331
4332
4333
4334
4335
4336
4337
4338
4339
4340
4341
4342
4343
4344
4345
4346
4347
4349
4351
4352
4353
4354
4355
4356
4357
4358
4359
4360
4361
4362
4364
4365
4367
4448
4455
4464
4473
4474
4476
4477
4478
4479
4480
4481
4482
4483
4484
4485
4486
4487
4489
4490
4491
4492
4493
4494
4495
4496
4497
4498
4499
4500
4501
4502
4503
4504
4505
4506
4507
4508
4509
4510
4511
4512
4513
4514
4515
4516
4517
4518
4519
4520
4521
4522
4523
4524
4525
4526
4529
4530
4531
4532
4533
4534
4535
4536
4537
4538
4539
4540
4541
4542
4543
4544
4545
4546
4547
4548
4549
4550
4551
4552
4555
4556
4557
4558
4559
4561
4562
4563
4564
4565
4566
4567
4569
4570
4571
4573
4574
4575
4603
4607
4610
4616
4639
4643
4654
4655
4656
4657
4658
4659
4660
4661
4662
4663
4664
4665
4666
4667
4668
4669
4670
4671
4672
4673
4674
4676
4677
4678
4679
4683
4685
4689
4690
4692
4693
4694
4695
4697
4698
4700
4701
4702
4703
4704
4705
4706
4707
4708
4711
4712
4713
4714
4716
4717
4718
4719
4720
4721
4722
4724
4725
4726
4727
4728
4729
4730
4731
4732
4733
4735
4736
4739
4740
4741
4742
4743
4744
4745
4747
4748
4749
4750
4751
4753
4754
4755
4757
4810
4811
4814
4830
4836
4837
4838
4839
4840
4841
4842
4843
4844
4845
4846
4847
4848
4849
4850
4851
4852
4853
4854
4855
4856
4857
4858
4859
4860
4861
4862
4863
4864
4865
4866
4867
4869
4870
4871
4873
4874
4875
4876
4877
4878
4879
4880
4881
4882
4883
4884
4885
4886
4887
5018
5020
5021
5022
5023
5024
5025
5026
5028
5029
5030
5031
5033
5034
5035
5036
5037
5038
5039
5040
5041
5042
5043
5044
5045
5046
5047
5048
5049
5050
5051
5052
5053
5054
5055
5056
5057
5058
5059
5060
5061
5062
5063
5064
5065
5066
5067
5068
5069
5070
5073
5074
5075
5078
5079
5081
5082
5084
5085
5086
5087
5088
5089
5090
5091
5092
5093
5094
5095
5096
5098
5100
5102
5103
5104
5105
5106
5108
5109
5110
5111
5112
5113
5114
5117
5118
5120
5252
5254
5260
5261
5262
5263
5264
5265
5266
5267
5269
5271
5272
5273
5274
5275
5276
5277
5279
5280
5281
5282
5283
5284
5285
5286
5287
5288
5289
5290
5291
5292
5293
5294
5295
5296
5297
5298
5299
5300
5301
5302
5303
5304
5306
5308
5309
5312
5313
5314
5317
5318
5319
5320
5322
5323
5324
5325
5326
5327
5328
5329
5331
5332
5333
5337
5339
5340
5341
5342
5343
5344
5345
5346
5347
5348
5350
5351
5352
5353
5354
5355
5370
5463
5472
5487
5488
5489
5490
5491
5492
5493
5494
5495
5496
5497
5498
5499
5501
5502
5503
5504
5505
5506
5507
5508
5509
5510
5511
5513
5515
5517
5518
5520
5524
5525
5526
5528
5529
5531
5532
5534
5535
5537
5539
5540
5541
5542
5545
5546
5549
5550
5551
5552
5555
5556
5558
5559
5561
5562
5563
5668
5669
5671
5672
5675
5677
5679
5681
5683
5684
5685
5686
5687
5688
5690
5691
5694
5695
5696
5697
5698
5699
5700
5701
5702
5703
5704
5705
5706
5707
5708
5709
5710
5711
5712
5713
5714
5715
5716
5717
5718
5719
5721
5722
5724
5725
5732
5733
5735
5736
5737
5740
5741
5743
5745
5746
5747
5749
5752
5754
5768
5852
5853
5854
5855
5857
5858
5859
5860
5861
5862
5863
5864
5865
5866
5868
5870
5871
5872
5873
5874
5875
5876
5877
5878
5879
5880
5881
5882
5883
5884
5885
5886
5887
5888
5889
5890
5891
5892
5893
5894
5895
5896
5897
5898
5899
5900
5901
5902
5903
5904
5905
5906
5907
5908
5909
5910
5911
5912
5913
5914
5915
5916
5917
5918
5919
5920
5921
5922
5923
5924
5925
5926
5927
5928
5930
5933
5939
5941
5942
5943
5944
5945
5948
5949
5950
5951
5952
5953
6059
6060
6061
6066
6067
6068
6069
6072
6073
6074
6075
6076
6077
6078
6079
6080
6083
6084
6086
6087
6088
6089
6090
6091
6092
6093
6094
6095
6096
6097
6099
6101
6102
6103
6104
6105
6106
6107
6109
6110
6112
6113
6114
6116
6117
6118
6119
6120
6121
6122
6123
6124
6125
6126
6127
6128
6129
6130
6131
6132
6133
6135
6138
6142
6144
6145
6146
6147
6148
6149
6150
6151
6152
6155
6157
6158
6159
6160
6161
6171
6259
6261
6262
6266
6268
6269
6270
6273
6274
6277
6278
6279
6280
6281
6282
6283
6284
6285
6286
6287
6288
6289
6290
6291
6292
6293
6295
6296
6297
6298
6299
6301
6302
6303
6304
6305
6307
6308
6309
6310
6311
6312
6313
6314
6316
6317
6318
6320
6322
6323
6324
6325
6327
6328
6331
6332
6334
6336
6337
6338
6340
6341
6342
6344
6346
6347
6351
6354
6355
6356
6358
6359
6360
6361
6362
6363
6364
6365
6369
6457
6460
6466
6481
6482
6484
6487
6488
6489
6490
6491
6492
6493
6494
6496
6497
6498
6499
6502
6504
6505
6506
6509
6510
6511
6512
6515
6516
6517
6518
6519
6520
6522
6523
6525
6530
6531
6533
6535
6538
6541
6543
6544
6545
6546
6548
6549
6551
6559
6561
6565
6566
6567
6568
6569
6571
6572
6573
6574
6575
6576
6687
6688
6692
6693
6696
6697
6700
6701
6702
6703
6705
6708
6710
6711
6712
6713
6714
6716
6718
6719
6721
6722
6723
6724
6726
6727
6728
6729
6730
6731
6732
6733
6734
6735
6738
6740
6741
6742
6744
6745
6747
6748
6750
6751
6752
6755
6756
6757
6758
6759
6763
6764
6765
6767
6768
6770
6773
6775
6777
6781
6783
6792
6795
6927
6932
6936
6937
6938
6951
6952
6955
6957
6959
6960
6961
6962
6965
6966
6984
6991
7002
7006
7008
7010
7011
7015
7017
7018
7210
7221
3100
3094
3102
2904
2906
3098
2894
3115
2897
2899
3109
3103
3106
2898
3117
2907
2908
3095
2909
3108
3119
3096
3111
3113
3099
2905
3097
2893
2891
2895
3104
3114
2903
2902
2901
3110
2900
3118
3105
2892
2888
2910
3101
2890
2896
2911
3107
3112
3116
2889
2887
3303
3314
3307
3304
3308
2886
3302
3317
3305
3311
3306
3322
3313
3310
3312
3319
3316
3320
3309
3318
3323
3321
3325
3315
3326
3327
2703
2683
2702
2694
2695
3324
2681
2686
2688
2693
2697
2696
2699
2685
2678
2682
2679
2687
2689
2701
2690
3514
2692
2698
2680
3732
2700
2691
2684
3719
3743
3725
3513
3512
3724
3739
3532
3735
2061
3511
3742
3727
3510
3721
3741
3528
3516
3524
3526
3722
3525
3730
3740
2472
3530
3531
3527
3522
3533
3718
3520
3087
3728
3519
3518
3517
3734
2470
3535
2062
3534
3529
3736
3723
3737
3733
2478
2482
1088
2473
1293
2471
2494
2480
2484
2474
2477
2483
2475
3068
2479
2476
2481
2495
1672
3731
1053
3081
3088
2486
3074
2860
1278
3070
1070
1043
3073
1476
1295
2492
3515
1078
1073
2885
1077
1084
1089
1090
3077
865
3093
1086
1083
2862
1057
858
1074
3089
3083
863
1259
2867
3069
3294
223
3071
1081
1282
1292
224
1460
1280
3072
228
1080
227
1677
3280
3080
215
3078
221
220
229
2490
230
226
2866
1091
212
3279
3285
3288
3286
1052
211
225
3297
217
3300
1085
231
1076
3283
216
3085
232
2868
3084
213
3086
3298
3282
210
3276
218
432
1072
222
3092
3082
3075
3290
209
3292
3289
2883
219
2872
3291
3293
430
1281
3079
3091
3299
3284
3296
3281
2493
2877
3277
1459
233
2491
3076
3278
3295
3287
2485
2884
2865
429
214
2487
2489
438
3301
434
1689
437
1682
2488
1249
435
1685
431
441
2874
2870
3090
440
2880
2871
417
2861
2873
1687
427
426
422
2881
1686
420
421
1463
425
2653
2265
418
1662
624
1256
2869
1683
424
649
439
2882
3485
2878
1251
2864
3699
416
625
208
433
436
1255
428
2863
3498
419
1257
3497
648
3486
3502
3701
3496
1048
2875
1846
2262
2654
1044
2263
423
647
3698
3490
3494
2836
3501
1261
627
2266
3700
3706
3500
1262
1474
2652
1470
1481
1260
3489
1265
2287
1466
2854
646
1472
3503
1253
1461
3505
2876
2264
3702
2286
3499
1462
3710
2285
2268
857
839
629
1469
1473
1468
1467
635
631
2628
628
1254
837
645
633
644
3508
641
639
1471
632
2269
2655
2267
643
1049
1464
630
634
636
638
1273
3708
626
2271
1479
640
2279
1250
856
836
2056
637
3709
3703
1051
2054
2274
3509
642
2270
2665
2280
2281
1478
2058
2272
842
183
188
2277
3707
1248
190
2069
2059
848
184
189
191
2657
197
1272
850
193
833
207
186
844
2284
195
204
832
201
392
1270
192
196
2282
205
206
1252
849
203
198
200
185
2072
187
199
194
2273
852
1258
840
843
2276
3045
398
835
1266
847
853
202
2078
854
2278
2065
2076
402
182
2663
1046
2656
1042
2063
3043
399
2074
2066
403
396
2675
2275
401
2060
2070
851
2071
2676
2067
838
400
855
393
2658
2666
404
2075
2073
2064
397
406
846
2068
841
598
405
2849
390
2057
834
845
2055
622
2283
407
408
604
1271
3260
1061
606
607
602
601
1064
603
2662
617
2077
1477
412
620
614
615
394
611
613
619
2668
616
610
618
2659
2661
410
391
409
2660
3042
612
2677
1056
411
621
609
3255
605
1062
1263
2079
600
623
413
1267
1268
608
1065
599
1264
3258
415
2674
414
1269
395
2669
2664
2444
3270
2835
2673
2469
807
1059
1060
1047
2447
1045
809
1054
2467
830
1849
3044
806
2468
1055
808
1050
831
1063
1848
2449
2460
2670
1847
1852
828
1058
810
829
1869
811
2671
1870
2445
826
2459
825
812
1861
818
827
1856
1871
816
814
3066
1868
2626
1863
813
1860
820
823
2452
815
817
2461
2456
1857
2465
2464
1855
2446
821
1638
1850
2453
3047
1853
1867
822
1854
2455
2458
2672
1862
2450
824
1865
1858
1864
2462
2454
1851
819
1866
2457
2448
2463
2466
2667
3065
2451
1640
1642
1859
2239
3056
3062
1639
1017
2236
1015
1018
1641
1663
1660
2261
1016
1036
3063
370
2241
3067
576
373
3271
3064
2260
1038
2859
1659
372
582
2238
1035
2237
1037
3251
2251
364
1021
369
1024
366
2858
3053
3269
368
371
1031
1014
2240
2857
2028
2837
1644
1034
376
1653
1027
1039
1645
1029
3058
1022
1656
1643
1647
1025
2050
1028
1652
1030
3046
3272
1033
2852
3061
583
1020
1023
2244
1649
375
380
573
1648
1646
2242
1032
2259
1026
3268
1657
2257
374
586
574
2258
365
377
381
3055
1658
1650
1655
379
592
2243
2256
3259
585
382
595
3060
367
2041
575
590
2037
572
1661
581
1238
597
3057
578
1240
580
2848
156
159
577
593
2254
579
158
591
168
1232
160
161
165
584
1227
1231
2045
1235
1228
171
172
589
384
167
596
1230
588
594
2839
2845
163
170
383
169
173
1654
176
175
166
2255
386
177
2838
157
162
587
179
2036
3051
2856
174
2029
178
2253
378
385
1233
1241
1651
181
164
1242
3049
180
2034
2245
3266
2846
3048
1237
388
1222
2246
784
2031
1236
2046
1234
2030
2049
1229
2042
5771
2052
2424
1239
387
2850
2851
799
2053
2250
2844
3059
2252
2842
787
802
1223
5750
783
1246
2247
1226
2035
1247
2051
2847
1245
1430
803
785
797
782
2039
796
1224
2033
2636
798
3274
2853
2040
2843
389
800
1243
1225
788
2038
2044
2648
2640
786
2048
804
1244
2248
2840
789
2047
1432
801
3254
805
795
4308
1431
781
1433
2249
791
2631
2650
1455
1434
1436
2841
1836
1828
1453
1452
1454
780
790
1435
792
1449
2043
1450
793
3275
1447
1826
1451
1448
1437
1439
1441
1840
794
3052
1844
4681
1841
1843
2421
1443
1829
1822
2651
1446
1440
1438
1444
1832
1831
1838
1830
1827
2629
1445
2627
1821
1019
2633
1839
1824
1442
1820
1825
1823
2635
2644
1845
1622
2630
1842
2032
1837
3458
1835
1834
1833
2418
2646
2649
2643
3054
6173
2419
345
2641
7016
1626
2632
2645
996
1613
2637
2422
2442
2440
1636
1612
2642
1635
350
999
343
348
2441
2443
1005
2211
1637
1006
1013
1633
1615
1614
1634
993
990
1010
1616
989
349
1009
344
2639
995
998
5761
1008
997
347
2438
1007
352
1632
340
2425
353
356
1004
1000
342
2638
2439
7227
1621
1618
991
2210
2427
1001
355
341
1002
1617
2435
1619
2222
3464
562
351
988
2428
1620
2437
7220
1630
7013
1012
2434
354
2426
2231
2420
2006
2429
6181
2225
2233
7207
2431
2433
1629
2002
1627
994
2227
2234
2436
554
2432
1631
2223
2229
2020
2003
2004
2007
2216
7204
4296
2212
346
2224
6997
2219
2230
2235
7014
357
559
2226
7007
2218
2423
2215
2213
557
358
2009
6810
556
1628
339
1625
553
6388
2217
2221
564
6595
2220
2017
2214
3676
566
359
338
558
6165
571
5967
569
7248
6596
4686
565
561
769
7238
767
1624
7243
2228
765
1623
567
768
5130
2013
2018
7009
7237
4572
7244
7233
6182
766
2022
570
6597
6590
551
2232
560
7249
6602
563
5757
5753
361
360
7042
6598
6587
552
555
5119
770
550
6379
568
363
4696
6580
1196
547
6603
6601
6583
762
773
763
6381
6789
6586
4906
5760
5960
771
5978
134
1405
362
6163
4348
5567
6806
1404
6371
772
6389
548
3705
132
5751
5756
6793
6811
1205
1197
5375
5766
4554
3701
4758
6582
1204
7025
6798
6178
549
150
4350
6180
6383
1203
3714
1221
774
1427
761
1428
1429
5116
136
133
7028
5769
1198
1208
4560
6382
6809
4568
3935
760
5564
764
1408
1426
1409
1211
1407
3933
1201
1217
139
138
1215
1406
143
1220
135
1212
775
1200
142
6177
1213
152
144
4366
154
7022
131
151
141
3927
1209
3951
5357
1011
1199
776
759
7026
1425
7030
148
147
140
137
1219
757
5957
7029
1413
3944
130
6805
5758
546
3939
1216
3936
3937
3932
145
1214
5968
155
5765
149
6802
758
1415
146
1210
3945
1422
3926
1218
1423
1410
1421
1417
153
1419
1412
756
777
6803
2012
5970
1416
5969
5763
1411
1003
6175
3948
1414
1420
778
754
1202
2008
4771
6797
1418
6185
2026
6176
969
4769
4553
973
4688
779
7040
5966
6184
978
755
5963
1805
1806
977
3723
4770
2015
6183
3938
5767
971
5972
1808
1803
1809
1207
972
1206
980
979
6168
981
975
2027
966
2019
967
2023
6166
968
1807
984
1794
5975
2010
1802
992
1424
982
983
2025
964
7039
1810
7033
1811
1800
1798
1804
317
962
987
331
1815
986
1610
1797
326
328
1812
1816
1813
1171
3942
1818
2016
1819
1801
1799
1817
1586
1595
1601
1590
1173
1602
6837
1589
1609
1796
5971
537
1611
1814
1179
2021
974
5759
5979
2024
1193
1608
1172
1606
2625
1170
5962
1607
1596
4765
3476
1599
1192
1184
1603
2832
4119
1598
5362
1593
5134
5974
5973
1178
1384
2014
1597
1174
4766
4922
1183
5373
5369
1605
5368
5378
5364
6167
5365
5366
4684
1600
4905
4768
1594
5358
5361
963
1190
3975
1195
5359
1401
1389
3906
5374
1176
1185
1182
4527
5121
5379
4699
5360
1177
1180
1188
4783
1189
3973
1186
1191
4767
1181
1175
4764
5377
1591
5381
3963
1187
4687
1378
5363
4890
5977
5367
4777
4780
1795
1381
5371
5372
1392
5380
1382
3967
1396
4114
1402
3757
4898
4775
1394
1397
4776
5589
4761
1386
1994
1388
5976
1391
1387
1393
1383
1390
5376
959
1991
1395
1778
1982
1380
1572
1783
4779
1787
1403
1588
1577
3971
1604
1578
1782
2001
1776
1570
2203
2196
2205
2209
1385
4911
1777
2206
4709
1399
4773
1998
1400
4528
1398
1788
1379
1582
1574
1587
2207
2812
2200
4763
2622
1194
1793
1997
4901
1585
2430
2604
1784
1993
1775
5141
1785
1792
1779
1773
1564
1583
1568
2616
2413
1978
2410
1771
1999
1790
1567
4772
5565
1979
1984
970
2606
2399
2831
2829
4778
1992
1981
2613
2201
2414
2823
1566
5577
4759
2005
2416
2412
2617
4946
2813
1580
4782
2624
2822
2393
4760
2415
5772
2824
2827
5588
1774
2398
2405
1990
1581
2011
4781
2603
1996
3041
2623
1977
1791
2815
2621
1592
2204
2197
3019
3040
1988
3034
3039
4910
2198
2188
1768
3026
3037
2611
3032
2408
2411
5144
3036
2208
2191
1976
2384
2388
1786
3033
3027
1789
2783
2391
1772
2592
2595
2784
2376
2370
2373
2377
2596
2806
1983
2801
4180
3704
4173
2819
5143
3712
2603
2016
5140
4738
2612
2205
2826
3946
2399
3473
5138
3713
1980
3717
2831
2604
2193
2832
4900
2622
2614
2406
3950
3756
4691
2197
2620
2401
3964
3977
4382
5129
5587
2811
3965
5131
3466
4177
4957
4179
3255
2198
5139
6377
4932
4895
5959
5135
2404
3699
6380
3962
2609
2833
4175
4918
5142
6373
5126
2409
2397
5137
5566
3273
3970
2410
4908
6170
2616
4174
6186
5581
5125
6392
3270
5573
5132
6378
5955
5145
5578
2606
3954
6164
4171
5574
6390
3930
5570
5585
5586
3958
6376
5576
6169
4939
5572
5582
5568
3968
3762
4169
3969
6375
5124
4926
6384
3056
5579
5580
2646
2632
4183
5777
5133
5965
5783
6179
4891
5790
6391
4762
5571
6187
5780
3042
5782
6370
6393
6585
6394
4920
5788
6374
5136
5794
6395
5796
4948
4915
6386
6372
5584
5791
5775
5778
1175
4916
6387
3047
4935
5789
5784
3257
5779
3050
5797
4909
4391
4899
5147
4912
5792
5785
3761
3052
3760
4919
3051
5781
3261
4917
3046
5146
4938
3952
3045
4950
5996
5773
5787
5569
5575
5998
3058
3044
2231
4185
5999
5793
5992
4392
3941
3934
3060
1384
4387
5991
3766
2841
3057
1387
4393
4715
5123
2846
3059
4907
4182
4954
2836
4378
4925
308
3767
261
4756
5993
4184
3768
5795
5990
4921
5776
5407
1383
4924
5989
307
4904
88
4937
98
4930
3064
3063
2840
4902
6610
3065
6609
102
6608
306
2838
264
103
6213
6624
3347
5122
6621
6212
269
6628
6611
4931
3345
6005
2636
4928
6207
3062
5385
5997
304
6202
305
2638
5386
247
6196
5405
5984
6208
6623
249
6607
6194
6201
6189
2844
6629
4320
5994
246
5987
6001
6200
241
5593
5985
3974
6004
5986
292
4168
5384
6193
287
266
513
6002
518
5981
5823
5395
4372
6398
4576
5995
3541
5802
5400
5983
239
5590
101
5615
5988
245
5597
6199
6399
5404
5612
3953
5391
5599
5387
5406
6003
5402
6191
6197
5397
5821
5399
243
6396
4386
5817
300
5389
6397
6000
5982
6188
6209
6192
268
5594
5382
5383
5396
5393
5403
5611
5394
4160
262
288
514
6211
4964
1396
302
5401
5804
235
5800
6204
5807
5819
1598
5980
494
1391
5592
299
6400
967
5595
6205
5818
3759
244
1397
1183
5815
5811
4737
515
5605
1394
1399
5398
298
5810
5390
5608
5598
1380
5806
5610
5392
5820
5816
1398
5607
953
5814
5158
5596
286
1608
6016
3755
6198
5822
5600
5813
5604
5606
3066
3769
5601
3752
1593
6011
5803
5613
267
1592
4176
3335
5609
4746
270
6406
5812
516
4923
294
519
291
4580
297
1610
4172
6401
517
301
6402
3956
5614
293
4578
1587
5805
3337
5603
503
3976
290
717
5602
5388
4936
6404
4166
509
3339
721
234
3332
716
5809
500
501
296
712
959
495
6026
715
6025
505
512
499
718
713
4388
4933
952
510
3955
3960
6405
3995
507
4934
4408
4961
3750
511
502
504
4734
508
4579
5168
956
5157
3764
498
719
5163
4407
238
4582
506
3984
4410
3351
6024
3331
4402
4949
4406
497
4196
2837
708
295
237
3989
289
4927
4409
5162
5169
4414
4947
720
2848
1607
4929
2610
2849
711
3330
1590
4577
4363
714
4583
496
710
3991
2851
3552
3747
3986
1611
707
3744
6018
4389
3990
3997
4963
1600
3988
4001
4384
2915
4200
4191
4003
5154
4202
960
4411
1599
1589
3994
4187
4195
1603
1595
4404
3993
5152
4987
4163
3983
5167
4941
4000
1597
4190
709
5155
3341
4205
2857
3981
4192
753
3328
4204
2845
4380
1182
4405
3985
4208
2916
1987
1596
530
1176
4958
3957
2209
4199
3996
5164
2847
4211
5159
5150
4368
4959
1602
3349
3125
3130
3121
1814
4207
1186
3979
3987
4210
4944
4413
1403
5170
4415
3129
1807
1605
4002
1601
3781
4412
4581
961
5161
5149
2835
5166
1804
3551
1794
1604
1401
1609
3999
4209
4379
1400
4206
937
3120
3980
4399
1809
3779
729
1588
114
2914
4587
129
119
115
1808
4371
4417
5160
1811
1177
4375
4584
4972
4978
5172
1798
954
105
1812
124
4601
1805
4956
111
110
1606
3773
943
120
3553
1815
2858
336
117
106
1817
752
5171
520
2001
1803
5165
751
1402
116
109
4418
1802
1810
3336
2201
750
5148
125
2611
1173
337
5156
1990
126
4962
736
127
2854
1180
313
544
108
4979
543
1806
521
335
128
107
2414
2411
1799
541
738
730
2850
2207
2415
328
122
731
1800
121
545
535
4982
317
1816
333
749
2413
533
334
2403
742
324
112
743
3782
528
2000
542
733
2208
1801
739
123
2712
4942
2204
2195
737
5153
734
748
1194
540
4986
745
3992
4419
2394
322
331
526
522
539
4975
5173
1170
1195
1813
1184
4599
1185
747
1819
323
2408
5151
532
1188
1191
1189
332
536
744
534
1187
2417
329
735
538
327
1831
1181
537
740
531
113
1172
741
1193
746
1192
320
1796
986
1174
1190
330
118
1818
325
2842
316
1421
1797
104
321
1171
2416
2859
1832
1417
4943
326
318
1795
146
2649
1420
2021
962
140
139
964
982
1422
987
1416
963
147
979
2018
1424
132
145
315
144
968
1413
314
1426
1414
136
131
1418
1425
1616
338
779
1423
149
153
1407
150