/*--------------------------------*- C++ -*----------------------------------*\
| =========                 |                                                 |
| \\      /  F ield         | OpenFOAM: The Open Source CFD Toolbox           |
|  \\    /   O peration     | Version:  v2012                                 |
|   \\  /    A nd           | Website:  www.openfoam.com                      |
|    \\/     M anipulation  |                                                 |
\*---------------------------------------------------------------------------*/
FoamFile
{
    version     2.0;
    format      ascii;
    class       labelField;
    location    "3.3/lagrangian/kinematicCloud";
    object      origId;
}
// * * * * * * * * * * * * * * * * * * * * * * * * * * * * * * * * * * * * * //


125311
(
1155
1785
2376
2061
1560
1562
1568
2019
2027
1458
1894
1896
3109
3096
1700
1721
1723
1743
1769
1770
1779
1907
1986
1989
1999
2007
2407
2582
2589
2592
2617
2786
2787
2788
2794
2807
2816
2969
2988
2991
2994
2999
3014
3020
2811
2646
3047
1666
1668
1873
1883
2086
2295
2303
2308
2512
1776
1983
2753
2758
2769
2783
2784
2785
2795
2943
2990
3175
3178
3181
3183
3184
3189
3193
3198
3199
3200
3201
3205
3207
3208
3211
3213
3219
3220
3221
3222
3409
3413
3420
3424
3425
3426
3427
3451
1875
1881
2089
2106
2293
2297
2302
2509
2510
2511
2514
2517
2532
2536
2721
2734
3139
3164
3397
3403
1976
2189
2194
2199
2550
2600
2601
2625
2817
2818
3038
3202
3203
3204
3206
3210
3212
3214
3215
3217
3218
3223
3224
3226
3227
3228
3234
3236
3241
3243
3247
3248
3416
3417
3423
3428
3429
3438
3441
3445
3447
3449
3453
3625
3627
3632
3663
3668
3674
3680
3685
3686
3687
3913
3920
2289
2497
2516
2522
2552
2732
2928
3149
3166
3354
3392
3565
3571
3581
3598
3659
3664
3770
3793
3809
3823
3828
3838
3846
3895
4015
4018
4028
4031
4036
4042
4060
4083
4087
4215
4221
4225
4244
4250
4253
4255
3790
2392
2602
2615
3018
3037
3054
3232
3240
3268
3465
3471
3480
3669
3679
3688
3891
3900
3901
3902
3905
3909
3914
3919
3921
3922
3923
3924
3925
4124
4133
4134
4136
4137
4138
4140
4142
4147
4150
4151
4155
4156
4157
4345
4346
4347
4359
4362
4364
3935
3933
3951
3939
3937
3975
3963
4180
4173
2607
2940
3379
3382
3418
3440
3444
3454
3646
3648
3655
3665
3814
3819
3825
3849
3850
3857
3868
3872
3880
3887
3893
3898
4004
4024
4027
4056
4064
4079
4082
4088
4096
4098
4100
4102
4107
4120
4125
4216
4232
4235
4236
4239
4240
4241
4245
4247
4249
4251
4252
4259
4260
4261
4262
4265
4271
4272
4281
4282
4283
4286
4292
4297
4302
4303
4306
4310
4312
4314
4325
4330
4333
4336
4455
4479
4481
4485
4494
4495
4496
4497
4502
4503
4504
4505
4506
4511
4512
4513
4514
4515
4516
4517
4518
4519
4521
4522
4523
4526
4529
4530
4531
4533
4534
4536
4537
4539
4540
4541
4542
4544
4545
4547
4548
4549
4658
4659
4662
4667
4671
4673
4677
4690
4694
4707
4713
4714
4716
4718
4721
4724
4725
4744
4751
4753
4218
4234
4461
2708
4645
4471
2808
2813
3229
3463
3478
3672
3681
3689
3691
3929
4109
4110
4111
4122
4127
4129
4130
4131
4135
4143
4145
4158
4159
4317
4318
4319
4328
4339
4340
4341
4342
4343
4344
4349
4351
4354
4355
4356
4357
4358
4367
4524
4543
4550
4552
4555
4557
4558
4559
4561
4562
4563
4564
4566
4570
4573
4574
4740
4741
4742
4743
4747
4748
4750
4572
4348
4771
4769
4770
4765
4766
4768
4764
4777
4780
3967
3757
4775
4171
4169
3969
3761
3760
4086
4116
4267
4279
4489
4499
4509
4525
4546
4639
4643
4669
4672
4676
4693
4697
4698
4700
4704
4706
4711
4717
4728
4730
4838
4839
4843
4848
4849
4854
4855
4856
4857
4858
4859
4860
4861
4865
4882
4885
5064
5065
5086
4644
4636
4641
4642
4647
4316
4334
4556
4569
4757
4867
4875
4876
4878
5085
4906
4568
4837
5066
5067
5314
3362
4219
4465
4446
3774
4010
4213
4002
4449
4469
4457
4013
4025
4217
3989
4454
4453
2725
3984
4462
4447
3996
3128
4223
4463
3145
3134
4468
4452
4227
2508
4201
4186
4197
3987
3580
3776
4631
3162
3915
4200
4211
4199
4209
4208
3697
2589
4192
3329
4187
4203
4195
3909
3935
3716
3144
3757
4440
3261
3977
4189
3744
4190
3972
3973
3905
4444
2615
3961
4434
3507
3692
4649
3764
4443
4439
3265
3990
4441
4422
4425
3331
2184
3969
3971
3487
4207
3123
3954
4435
4432
4135
4188
3004
3959
4161
4184
4632
4423
3729
4181
4442
3262
3343
4430
3124
4180
4421
4426
3133
4436
3136
4437
3956
4438
4134
4363
2614
4163
2794
4364
4361
3545
4136
4350
3695
3341
2352
3342
4131
4611
3336
4351
4108
3209
4177
3964
4185
4110
4367
4113
4345
4366
3548
2581
3477
4344
3951
3523
2404
2834
4109
3470
4352
4169
4347
3026
3046
2808
2833
4365
4126
3056
3051
4342
2822
4337
4393
4114
3044
3073
4177
4565
4562
4561
3067
4567
3034
2574
4557
2576
4560
4558
2809
3021
4570
3029
2831
3064
2395
3019
3040
3063
3065
2200
2402
3022
3089
3050
1981
3062
2810
2612
2638
3244
3052
2185
2832
3045
2608
2636
2814
3257
3092
3098
2401
2830
3262
3078
3055
2400
3068
3286
3116
3252
3269
3259
3285
2206
4569
3110
2412
2820
2904
3289
3446
4571
3291
3461
4550
3293
4564
3272
3254
3093
3311
3322
3452
3271
2203
3290
2196
4174
3295
3264
3970
3317
3076
4183
3968
3266
3298
2672
3280
3281
4391
3083
29
3296
2675
4382
3284
3049
28
3308
3958
3288
2665
3273
2211
3287
3309
3274
3299
3278
2839
43
3294
3936
3260
3282
3104
3118
40
3766
3316
3482
3112
3261
3954
48
47
30
37
3258
3267
1889
44
3504
31
2653
42
3094
3464
3491
1880
39
2911
45
46
3500
3505
32
33
3114
2900
36
3487
3119
38
3473
3492
34
3265
3275
3477
41
2907
2060
3319
3307
3297
4340
3503
2836
2888
3496
3315
4326
3251
3973
2902
2715
3489
2811
3488
3501
3039
3312
3283
3279
3927
4555
3507
4333
3965
3111
3506
4317
3962
35
3292
2070
3117
3095
3320
4103
2889
2809
2887
3306
2507
3497
4322
4534
59
4539
2765
57
3277
3313
3479
3027
3323
56
55
65
61
3097
3300
3096
3483
3314
66
2664
3305
4336
3042
62
3310
72
63
70
64
3467
71
69
3493
2891
68
67
2910
3301
3318
3508
2094
2908
2444
3475
3321
3485
3224
3432
2096
2093
3926
73
3101
2091
3276
2894
3324
3031
1665
2657
2906
3470
3270
74
4540
3024
1895
54
3656
3514
3527
3525
3495
3520
3466
76
75
3304
2923
3517
3515
3526
3524
2231
3486
2886
2674
3325
3255
3303
2241
3531
2669
3302
2446
3326
3767
3460
2459
2448
3474
3523
2237
2501
2266
2469
3522
3530
2396
3699
3529
2660
3133
2244
2897
2901
2655
2240
1471
2463
2278
2083
4304
3623
2673
3519
2893
3459
2466
3134
77
4086
2465
2464
4298
3646
2452
2759
1089
2284
2467
2462
2286
2280
2456
4106
2667
2899
2506
3619
3532
2190
288
2447
4082
2450
2652
53
2099
1896
2461
1456
304
2668
3513
291
3256
2245
2505
2748
3932
2455
2453
3945
1674
2287
3490
4315
1696
1529
2449
2285
4312
2564
3948
2081
2662
1512
287
1489
3642
2708
2719
2926
1507
3533
3512
3944
3694
4313
2554
1073
3469
1888
1681
1676
4311
2454
2105
310
2663
1530
1669
1668
2746
1275
1283
3938
1894
3263
2451
1702
3250
2724
1700
286
715
2263
52
3472
509
1679
1732
311
722
1726
721
2921
1730
710
1520
1482
508
2749
1729
100
2293
2488
3468
1731
712
1551
510
1541
4310
513
2267
1673
1532
1725
720
1288
3949
507
1552
718
515
3509
723
1143
1727
3849
3139
505
2264
511
4504
713
81
1459
516
719
2262
3710
1724
514
1547
2265
3698
716
1733
725
717
101
1734
1506
1546
3709
3831
2486
1728
1554
3942
1715
1721
1130
1132
3977
3832
1545
512
2725
335
714
934
3697
1553
3940
727
1142
3947
102
2476
1555
2934
3511
2931
3696
1525
3943
2932
3713
103
519
935
1548
1550
913
726
3695
2296
501
324
314
932
1487
1539
1494
3952
3692
703
3931
3484
506
3142
3510
494
706
517
1346
3723
337
1345
1338
3136
4510
1121
333
2930
104
1910
3499
330
518
3711
331
1720
2714
1667
504
1344
84
499
1714
1349
92
1540
94
363
1704
534
83
2843
91
93
535
1875
2706
724
711
3535
1531
3126
503
78
709
88
707
3715
1333
315
332
1542
97
4081
1341
1339
1340
2933
705
1155
704
1688
3693
336
316
2704
1347
541
3131
1736
1343
1332
1533
3768
914
1543
3141
1118
1300
4057
1735
1884
1695
1874
502
702
2717
4482
1336
1330
1737
2495
1510
1348
2490
1483
1153
3717
1557
1334
2492
2493
1514
3706
1331
2489
1690
496
1491
2485
3707
960
2478
1738
500
708
82
3327
321
329
1891
3145
2727
95
317
4408
3708
318
1916
1486
2918
2491
1893
79
3712
323
2482
2853
3950
1558
1350
319
334
3946
4191
1509
524
1329
4001
531
1148
3989
1697
322
2487
1556
4196
86
4210
4192
1739
4195
3704
96
98
527
3700
4000
1719
326
1093
2916
328
327
90
497
2484
2726
387
325
3703
3737
543
4202
3983
3985
99
3986
2935
525
3727
4204
3991
2472
3990
1335
85
2929
4411
3125
1303
119
2840
4199
1913
4206
498
3980
89
105
495
361
3979
937
545
1906
2703
1166
360
559
4409
339
4002
1919
3997
3552
108
362
949
3981
80
3988
388
943
544
3341
118
111
3781
752
340
116
3137
1351
2494
106
753
128
359
356
1902
358
741
542
561
351
4406
2473
4003
129
3764
4410
2922
341
562
520
3779
112
3999
343
127
4200
938
552
342
2729
345
2100
1905
530
2927
558
563
2705
537
557
117
344
312
357
109
2928
538
959
355
728
352
87
1328
3993
751
744
743
3994
135
348
354
346
4407
1898
2470
731
2298
3928
954
953
1921
539
2483
730
353
4184
1484
732
350
746
955
750
386
1362
1692
2084
738
3516
734
349
748
2097
533
745
136
364
526
2479
749
1664
729
2474
947
378
114
313
3337
120
747
2471
3930
2678
133
3541
368
736
536
2711
1911
1559
551
138
735
374
150
366
139
124
2089
553
375
2101
555
107
3996
2682
121
1164
134
739
961
2122
382
1763
381
376
377
4187
389
379
320
1364
113
383
2700
742
3336
380
1741
370
385
3987
2702
384
122
939
950
3351
147
143
2304
2294
2509
2508
3534
564
367
3344
347
145
4402
110
373
144
142
115
3518
132
365
137
141
151
149
167
369
371
146
4414
2701
4211
3330
413
3128
140
1457
2698
2681
1914
123
2699
2480
160
4207
2679
1909
4758
566
148
570
3756
550
125
1165
2309
2936
412
733
1877
1716
1885
2680
4108
2532
951
2728
1162
3934
1163
4404
548
2481
3941
740
911
4112
5345
3971
3502
886
2696
152
4175
3964
408
912
4767
1918
399
2690
567
4415
2475
4208
1485
4551
3155
3721
2949
3731
338
1943
3984
4869
3332
1169
956
1965
3368
4732
2477
3729
2947
2693
4763
3331
945
3144
2692
4773
1897
4399
2834
4783
4776
4378
4565
1901
2086
4405
4703
161
3494
4190
4179
1876
4205
404
1718
2688
568
2687
126
4726
4392
944
2691
410
401
131
5111
549
3762
403
4413
4761
2697
1922
392
1372
406
405
4719
1367
4749
4372
593
3122
571
546
175
948
1366
1928
4554
4881
394
4366
2684
1167
5118
2948
971
4185
4735
4209
4695
980
409
565
1740
2683
4417
4755
396
411
1158
4736
155
4685
1882
4575
1371
390
2144
1920
4720
2694
1370
1900
1887
3364
5370
2750
5106
4160
586
2092
1766
3362
3719
2146
4182
762
981
5365
1377
3160
4922
1937
2102
2689
4152
415
5373
578
153
1144
5378
4781
1904
398
5110
5114
163
372
3953
5375
4435
4890
168
4350
579
395
1883
4688
158
775
2145
2709
4782
164
2956
4560
3702
1917
554
3335
414
4779
769
4168
2920
547
4432
759
773
3369
588
778
1879
779
171
4387
774
771
772
166
2955
4037
4360
3162
2736
3154
2951
940
2686
1161
587
169
1368
130
3739
4393
758
162
3132
4918
556
560
2695
3826
540
2149
760
165
952
4267
2945
3400
777
3736
181
1923
3822
170
3843
765
2685
159
4073
1579
3742
569
1873
172
1942
967
763
1903
757
4957
770
3718
2739
969
1915
1375
776
2148
1302
3156
1765
3143
4280
2123
1145
4487
590
528
767
2082
766
4030
2095
3365
3123
1764
5374
1944
580
3743
4386
768
3360
391
755
3741
1890
3345
3393
3152
756
5372
5371
761
581
3147
1878
4760
3738
529
3720
4233
4905
2143
2104
4901
5
754
4978
3995
4946
3555
1881
3846
4580
4232
764
4288
589
407
4014
1156
174
3148
3163
2946
2124
2954
3740
3358
523
1723
3722
226
1360
4440
4567
3347
3728
4035
3382
178
3825
572
1936
1
4582
3165
2142
218
4579
1352
3339
231
4972
2710
4898
3735
3366
3363
173
194
968
2087
4388
3378
4246
4439
3357
4412
3847
1508
3121
5137
4778
3734
3724
3956
1912
3382
3730
4221
3733
1946
3725
229
595
3386
188
3521
197
393
2125
1908
157
222
2958
1399
3732
400
1939
4229
597
2723
984
3385
3726
228
217
4047
2502
3159
2097
3791
4234
1154
4431
4008
4241
4017
176
1970
2303
4219
797
4979
3140
4437
2943
4238
1203
230
3346
3770
3167
4261
3168
596
3149
3561
3372
3790
4442
2317
4239
4426
3787
3528
2120
2090
3151
3169
4260
2098
2960
3780
788
2937
3146
190
1006
4243
1209
799
791
4428
219
185
220
2080
225
1387
575
2517
397
1206
186
2732
574
3171
4466
4005
4244
221
1400
2100
4226
4012
1003
2327
2513
3786
402
154
4445
1397
4441
1949
2523
179
1191
3170
4451
611
4458
998
4007
4225
592
594
573
2721
4429
2913
1535
4457
1760
789
227
1183
3821
3398
4583
1874
2959
4009
613
203
3540
4216
798
183
2514
200
1004
4422
4578
4248
204
191
576
180
2919
216
602
198
582
1190
965
199
994
232
3758
4438
184
2941
793
583
189
193
187
803
1007
212
805
4418
787
4576
2733
4461
195
3795
4982
800
796
207
3820
3602
3596
4462
3763
993
1005
209
4577
792
790
3549
4014
1174
196
802
4006
3777
156
201
4028
3794
4455
2963
182
1670
4915
962
786
591
3544
585
3389
3550
192
996
5135
584
3815
4006
4228
794
3783
4007
4919
4008
3538
202
615
3796
4772
3554
3998
3546
4015
3792
5141
4619
3560
3127
3548
3343
4444
3788
3793
5138
4935
4213
4027
3340
4018
3578
3348
4900
3537
4640
3338
2925
3334
4029
4028
3557
3784
3556
4011
577
223
213
205
7
215
8
177
3621
801
6
606
2952
618
3404
4986
621
2522
4222
785
2289
5139
3350
4419
2924
4920
782
2299
3377
4015
4691
4643
214
4227
609
603
2291
3396
3628
4230
3620
4368
614
5131
3810
233
5142
4459
4462
4987
4458
3789
3773
3572
3577
604
2107
4611
4004
620
3386
4928
4932
3575
3574
601
4025
4926
4010
4621
4166
4964
5364
4013
4937
3349
3974
3599
4895
3558
3354
2718
4398
5143
3352
4948
5168
4930
3750
4910
4917
3120
4950
3632
5129
2720
4961
4020
4954
598
4924
4217
4026
5167
4203
4975
4921
5154
3624
3796
3960
4916
3135
4925
4947
4938
3955
3805
3785
3759
4609
4644
3714
617
3385
4389
3353
3379
5126
4963
4198
246
5379
2915
5144
4601
224
4176
3755
5394
3752
3769
3182
3571
2519
4762
4949
4587
3402
4237
4454
2722
4172
5147
4218
5402
5152
3610
4380
4581
4962
4253
4958
3976
5159
4645
4371
3627
243
5133
3370
3328
4016
3397
3185
3747
4908
4023
4189
3392
9
4599
3393
2730
12
3186
3799
5388
3166
14
4465
4974
4420
5145
610
5392
4019
4022
5146
5403
3394
4959
4384
2972
4942
4931
4163
821
4941
4944
3388
2518
4242
5396
5164
2716
3124
3744
2564
4375
2334
4214
4033
3390
11
238
21
4004
3619
5390
3181
237
3957
4021
206
4245
16
3568
13
2914
2970
5404
4605
4662
4246
239
3188
3184
3399
4430
2939
3381
616
3376
4447
2311
4626
3130
4427
3197
2499
4379
4464
3573
2339
2944
3176
256
3129
241
5170
3817
2314
3193
4425
250
10
3183
253
4466
4968
3414
242
4584
248
3400
2961
2969
2496
4424
17
3618
608
3383
2528
3192
15
3771
3401
259
2938
605
3175
4431
2
23
4248
3416
252
2731
3356
3194
240
3415
244
3173
4188
2985
2707
3816
3418
3635
3625
4433
2338
251
3587
4429
2497
4470
3359
3597
3413
4471
254
24
3361
3
3562
4468
3195
4469
3409
3421
3180
3429
4591
3406
18
3190
32
3423
25
34
30
0
3811
2988
3559
2968
3634
31
3605
3422
20
3623
3412
3424
268
4460
38
2292
4
3411
3985
39
3420
3172
3430
19
42
47
3617
2989
3626
3795
3408
3579
2965
46
2966
3419
3813
3425
5391
2964
3608
3593
3426
2957
5166
4215
44
3564
3636
4943
3580
4956
3570
2300
5604
3637
4648
3629
4980
3563
5398
5153
3567
3803
3566
4637
4965
2288
2917
5156
3367
3208
2712
3585
4240
2510
3606
3222
6868
3591
3371
3633
4796
4186
7515
3600
3586
5165
5401
2805
2515
2498
5393
3807
4830
3594
4970
7511
3207
5600
4945
4396
5160
2942
3815
2504
3582
4416
4936
3657
3576
3428
4827
3609
4971
4818
6985
3569
4374
3196
3809
3407
7653
4989
3243
3595
3200
3590
4401
2996
2782
7181
3245
3215
5199
3164
3202
3239
4617
2998
7188
4821
4973
3223
3604
7143
3639
7124
5830
7136
6169
7652
7131
6971
6910
4795
3174
2620
3178
6285
7361
2576
4397
3806
7375
3241
2609
3589
3836
4988
3451
3198
3374
6491
3439
2950
3452
6842
3157
3375
3565
3230
4649
2548
3373
3434
3203
2823
2570
3179
6687
3237
4832
4951
3583
4639
3832
3814
2619
3846
3622
3681
5220
3596
4833
4673
3231
3229
5197
4448
4819
4260
3802
3584
4270
3029
3804
3455
2735
4461
4667
3236
2967
3431
4960
3444
5213
4642
3801
3674
2552
4651
4650
4451
4241
4446
5006
4055
3857
3588
3611
3845
3581
4633
4803
3842
4457
4806
4652
4449
4031
4955
5196
4247
3447
2973
3607
3456
4985
4635
3866
5194
3659
3861
2779
4259
4676
3603
3264
3844
3860
4251
3405
3598
4057
2415
3019
6705
3800
1899
3649
3841
4804
3687
3818
4074
4065
3837
2500
4265
3387
4034
4044
3682
3835
4036
3838
2397
2194
3821
4039
4287
3679
3438
3820
6926
3403
2713
4243
3650
3819
3471
4046
3683
3662
4042
3847
3472
3040
2762
4038
3612
4670
4681
4035
3476
4450
2568
4657
3638
3478
3653
3856
4257
3631
1872
2777
3834
4659
2524
4665
4043
4489
309
4053
3822
4032
4041
4048
4671
4254
4045
4051
2521
4050
58
2744
3843
4675
4486
4679
1131
2953
290
3655
4672
3827
3833
292
303
4289
4052
285
51
2542
4037
3630
2582
4660
4249
4047
4255
294
2747
4250
305
4669
4664
26
50
1342
3602
49
3601
308
298
306
307
4684
3240
2999
3204
3395
4264
4678
2825
4285
3873
4040
4680
3645
2193
2565
4854
4279
4283
293
1248
6484
6895
7130
4496
6267
5517
6700
1549
295
7387
6059
7381
2993
7360
3268
6681
7364
3862
3828
289
3568
3473
4477
4434
910
4277
471
3262
3058
3267
3801
6890
2647
3258
2824
1521
3855
3651
27
3254
3263
3892
4062
4076
3466
3684
3863
3467
3479
3676
3461
3830
2798
7850
6495
299
3775
4223
4258
4054
2191
3464
3868
468
2405
3852
3869
3888
3867
297
2635
2411
3255
3614
301
3826
3891
282
2793
3840
4487
3646
277
485
1136
4251
3469
4252
3252
3831
4075
1120
4661
6667
474
470
3251
3477
4061
283
1279
2275
2816
4025
2243
2978
3474
3475
4256
7670
7141
491
931
4250
4523
2579
7601
300
3460
3884
475
4053
2622
2396
3686
6840
272
3675
3881
489
1517
3380
3673
3680
4079
6490
279
4292
493
3707
4098
7399
486
487
1125
4003
281
478
4296
296
488
4202
4693
484
933
1123
3893
492
7413
480
5754
483
482
1138
6903
4209
302
12
3781
7876
7794
17
4233
2903
3459
3689
3685
270
479
3709
60
2986
916
3994
473
920
917
1337
2659
18
4191
1511
6672
275
481
918
3777
19
2238
490
4039
3354
267
3
1519
4232
2445
3929
476
4148
3962
2670
2656
3799
2905
1141
2895
3553
4199
2722
477
1284
3698
2890
4196
1892
2281
923
915
1140
2835
3690
4170
2661
1771
3533
1124
1274
2666
263
268
24
2208
4174
2671
4001
3711
3688
4160
4308
3555
4206
4080
4137
284
9
928
925
4262
3226
3897
4364
273
1119
4011
701
14
21
1323
6633
4177
926
921
929
4046
2812
276
3706
2260
4045
3701
3903
7
4213
4348
927
3225
678
4217
3353
265
924
3102
5
2271
4346
4358
3137
3771
1277
6859
7376
274
699
1886
4093
1713
4222
4344
266
271
280
919
930
2250
1670
4065
1137
1139
1126
2457
4352
1516
4002
4359
3912
6665
2615
1526
1304
2261
4362
247
2398
683
3500
3671
1325
2677
1324
4367
278
3577
1505
3331
3561
3754
4135
1678
4361
2620
2236
2396
20
13
2789
3667
3364
4353
25
3825
3549
4566
3977
4355
22
4354
4272
15
694
4224
3563
3746
4116
4204
873
3680
4327
192
23
4000
4360
4365
1691
269
248
1513
2242
3565
1134
1296
4221
4346
16
3980
3663
4564
1135
922
2270
246
3792
2283
4172
4350
4280
3335
4563
7341
1129
3772
1133
7671
1711
3704
3498
3898
7121
250
2276
2279
2369
4060
202
4145
260
1712
4358
181
909
4215
3591
3143
1092
4357
0
1127
1677
4345
7100
249
1117
2460
193
3109
5262
700
4230
676
684
7353
206
682
2273
3107
4228
4286
5061
1306
2239
2257
244
4005
182
2269
184
198
1518
2658
3986
5055
1321
4226
5278
5273
4852
4752
4360
200
1122
3115
2742
3939
444
1301
4533
5269
251
4308
4762
1307
4158
3253
4862
183
4761
3368
5070
6683
189
6980
4333
254
4092
4347
5038
253
245
159
7142
5499
191
1128
4249
4143
205
459
1693
1915
5255
7577
3888
3035
3455
262
1322
5066
4530
4106
185
4819
443
4227
4785
256
1694
2063
3981
4396
465
3590
4313
194
195
7391
445
692
4259
186
1710
4219
4132
4100
3538
161
241
258
4546
4781
696
908
2654
3886
4817
4794
446
2909
4355
3437
5045
4161
221
190
677
5326
4538
201
187
450
4098
4759
4500
188
261
4120
3884
4795
6
685
1515
5258
5069
452
4112
3108
3835
4131
458
463
456
1320
2274
3892
4806
3244
5493
5512
243
207
448
4172
5107
5324
5508
4754
4080
199
906
2272
3749
204
454
907
3362
7180
3877
5261
4791
460
1527
1314
2720
3665
4803
2059
3976
3921
1319
2254
5096
3660
4521
4818
257
2277
255
697
1504
1503
2074
3974
6648
4748
1528
2256
453
1498
6656
3018
455
447
2246
3658
4829
259
203
449
888
3069
4770
691
1502
2268
2253
3643
2282
3979
3435
4834
4757
4755
3998
4154
3923
3677
686
4009
3248
6862
4736
4788
180
2620
4542
4511
1877
172
2
693
4499
4550
4501
698
2820
1500
3788
5032
4747
1495
5049
4827
178
1675
1707
2056
462
451
1669
3901
5296
3873
2826
4527
4743
4734
442
1315
7359
10
169
1685
3529
4373
252
1493
4340
2808
457
695
4141
464
885
2078
3915
4319
5502
4737
239
3071
6845
4801
2458
4064
3996
4159
4
3830
4325
5903
4584
4826
2255
5724
4517
4805
681
469
2252
2676
3953
4149
4152
3238
3779
3995
461
3816
5079
5498
4294
4799
4247
2606
4753
4079
170
905
1703
2920
4335
240
2061
4080
4081
5753
5503
224
1523
2247
3099
4134
4326
4828
5009
158
466
2042
3666
264
4790
4505
8
2079
5877
4798
2076
3566
4331
6661
4512
242
196
238
3106
2619
4338
4264
2928
4142
3802
167
1524
6908
5234
4733
160
3113
6074
3853
177
680
2259
3081
3884
3823
3112
4289
157
175
4502
4509
227
2710
6133
4808
2251
5770
4792
4793
197
690
2892
5734
164
1312
1115
4339
5738
4578
156
2068
3100
3105
5721
688
1501
3927
3718
3856
1318
2647
4026
4738
1698
3622
3945
4274
5693
4807
4810
176
1308
2054
3390
3999
166
1709
2248
2258
1708
2898
3072
4094
4576
5867
4105
4712
1317
3082
2089
4518
4744
679
3103
5846
5090
4745
4751
5884
173
4157
5720
235
1499
3879
2922
4503
3851
1467
3467
4128
5657
5250
4749
4243
179
162
1295
4332
6481
3855
11
218
467
2065
3379
5083
174
884
2896
4331
3763
4750
1310
3020
4839
5042
4731
1116
1496
3931
1881
237
3911
3900
4784
2067
2223
5490
231
3474
5677
6870
5187
3504
850
3090
3931
6655
4974
3991
5511
5188
220
2874
7469
3472
5732
4739
4741
4980
2821
1311
5936
4478
3849
236
3059
4140
4144
2184
2814
2392
5486
5699
4756
1313
2072
2998
3481
5277
4242
901
5954
5196
5191
211
3823
4153
4033
171
1
1095
1053
2868
4139
5074
4724
4240
168
209
1472
2825
4329
4497
4239
5727
5007
4971
6847
4707
1705
4027
165
5088
4513
4825
4238
2249
3070
1898
4220
4150
5737
2731
163
5264
5718
4986
4708
4285
148
3127
4519
5016
229
2071
3579
2818
4129
5733
6657
4494
2316
2732
4052
1706
2418
3757
5896
4470
234
3060
4156
4130
5635
5740
5646
3152
5496
4536
3746
3898
5895
6888
4719
232
230
3074
4136
5924
225
4151
5489
2534
3769
5898
4483
4978
4217
2940
2091
3988
5242
3809
3961
4374
5914
3797
897
3186
4796
3358
5728
3442
1682
4125
4324
5872
4796
1107
889
2202
5735
4716
5855
4999
687
4302
3897
3556
5275
2942
2227
1689
2424
3091
5654
4539
4713
4983
6647
4007
3053
4735
4476
4471
896
1701
5494
5180
4254
214
1522
1250
4328
4020
4132
5915
5726
5743
6878
5709
4484
4976
4032
3194
4320
5845
5905
5922
4482
4451
894
899
689
2221
4038
4024
2397
5254
4710
1114
2049
3015
3058
2967
3121
4010
5907
1042
5900
4081
4975
4448
4463
5509
6614
4379
4068
5471
5005
5178
4720
2218
1051
4336
6126
4885
5011
5014
4988
2290
900
3400
3951
4086
3645
6635
4718
4447
2632
4121
5506
5243
4972
233
890
3963
219
2075
4406
4018
3676
5848
4033
4466
4729
4982
1666
1979
4023
6052
6127
5163
3648
1268
3399
5921
5700
147
1249
3187
4107
3823
2880
2881
3988
3173
5739
5495
5637
5440
4789
1252
2216
5230
4883
5175
4186
5636
5018
4989
4467
6637
7055
6437
2062
5870
4787
4453
6007
2870
2867
2055
3080
3066
4314
4282
4705
662
1699
2864
4428
4764
4608
5238
3755
4311
4302
3338
5193
5199
2878
3079
5533
4114
5705
3745
226
4110
4244
6444
5803
4985
4460
6642
3975
1104
1464
2883
2879
3683
5730
5742
4492
4802
212
667
3408
5266
3224
5696
4049
5190
5158
4250
6646
5638
2288
1108
1103
892
898
2865
4991
6653
4515
3038
4450
893
5923
4296
1299
4029
4334
6047
5729
4312
4568
5909
2869
4294
4261
6443
6652
6035
5467
5013
6447
142
420
661
2857
3339
5531
5466
6876
6846
1105
1480
902
4140
3782
5707
5920
2965
6630
5500
3953
3557
228
904
2885
3404
3675
4998
4455
2956
141
1106
2057
2875
6861
5249
5195
4677
144
399
4591
1309
2997
3396
3482
5488
4493
2862
6626
4288
903
5271
5647
4376
5394
5198
143
2863
2989
3196
4308
3438
5184
4956
1096
2876
4727
1266
2029
2421
4786
1109
1101
887
472
2993
4799
4967
4194
2877
3406
3430
4127
5722
4877
4702
658
5001
4709
5248
4119
4943
6834
1477
4192
4835
6636
2058
5194
2838
3407
2931
4514
4458
6445
137
665
1110
1686
2066
6906
3508
4117
4491
5436
4714
5928
6400
1094
2882
2873
3485
5004
6423
4965
835
834
3947
6165
4962
7058
1102
669
3768
5711
4850
132
1687
3088
4138
3336
5003
5458
7067
4028
4225
4703
4115
5501
3647
4262
4372
6632
666
2884
3216
4272
3371
3172
5769
4265
6848
4675
3783
3431
1770
5736
5692
5478
6654
2090
210
2861
4251
4661
6844
4953
4425
222
670
2048
3905
5698
5181
3560
4944
4952
1474
2759
3395
4102
5874
3773
5037
4337
4330
5689
4833
153
4648
2077
3087
4932
4117
6427
5670
4654
4678
138
1680
3960
4126
6775
5492
5006
4970
5148
672
6213
2235
1469
4327
6627
130
671
6817
3057
3005
4487
4977
4201
4671
154
5882
3770
4090
5237
5251
833
4942
3715
3682
5702
4277
4990
4658
4681
1827
155
1112
2998
4096
5008
4464
4469
2069
3920
5206
4726
6398
3854
5630
4951
131
4359
4730
4122
5911
5015
1982
5017
149
6815
6401
407
673
1113
6622
4042
2823
5913
3031
6884
4676
4420
4696
4655
3084
3942
6731
5197
6011
6024
2871
3012
6152
4175
3440
5168
4198
674
2846
3013
3943
5741
4169
2498
4454
2226
4292
4309
4694
2725
3123
5150
2866
4182
4082
5731
5917
5861
4959
4197
3077
5958
7111
5185
4963
2859
4287
4682
1111
2064
2423
2837
2995
945
5881
5649
4468
1100
4418
2860
5426
2428
5919
1828
6832
5002
3086
3766
3911
5270
5010
6020
3174
5502
6469
3789
4669
2996
4816
663
4688
2215
1683
1465
5556
2434
2435
5462
6318
3702
3891
136
4402
1099
6833
2440
2073
2720
3085
2987
4055
4104
402
2443
848
3976
6616
5660
4814
6439
4947
668
6166
3918
3894
4414
5182
3387
675
6441
2943
2757
3471
3660
7539
5717
5706
5230
6397
3744
4189
4864
2420
1492
2791
5406
2714
1316
5984
3412
3794
5510
6123
4414
664
2419
2872
4101
3344
5893
5226
5401
4804
152
5491
2817
5773
4456
1488
2433
3948
4323
6362
5169
6435
3075
2304
4809
4837
2950
4957
1476
3000
5432
3948
7562
6396
4407
3330
5139
6831
7056
6901
4099
392
6818
2841
6593
3776
3950
5897
4652
3388
6203
5274
4832
4815
4880
3176
1393
3748
657
2002
2972
2140
4043
5386
97
3955
7263
4200
4095
5644
4996
3752
403
4881
1264
2796
412
413
4692
1684
891
2723
5703
4966
4660
6644
6139
5676
5461
2442
4353
5513
3696
4673
3009
5913
151
2984
4141
3861
5427
1097
1298
4670
4149
3692
4798
4969
4283
7061
2210
4411
4438
4103
5712
4008
146
401
1671
4873
4651
6532
4030
4465
1297
1473
2782
5681
6735
4830
5418
659
4635
5120
2225
2233
6543
3450
5912
5388
6850
395
3003
5713
4797
5012
4446
3185
4303
4278
4036
2935
3759
6808
6476
4860
4812
145
405
208
4883
2187
4173
3195
3435
7040
3534
3918
6428
5110
1481
3477
3916
4310
5639
5044
4220
4051
2015
6813
3157
4307
4258
1098
5109
4154
2214
5505
5886
3764
4992
4583
4599
6220
2212
7085
2641
4051
5710
5462
5171
92
6022
650
4872
4879
5500
5485
4662
2228
2012
3153
4139
1874
213
6819
3677
7473
3914
4124
5719
5632
5170
6736
4666
4002
5451
6418
6628
6029
415
4184
3916
7635
3698
3656
4457
4668
2010
4939
4649
2805
4879
3973
3929
6537
4125
4055
4811
4269
133
134
6857
2429
4170
4884
3559
4147
4084
5714
4063
4968
404
2933
859
1090
4852
4845
4175
4717
6430
2634
4891
4893
2003
3751
4605
4443
6438
6645
4877
5259
4865
7035
3706
5436
4880
5174
4672
4667
6021
3365
4644
4183
6158
3569
2232
2964
5140
3917
6087
4034
5447
4252
5265
7268
4356
6785
3525
3704
6413
5246
4459
411
6835
5114
4372
4634
5126
2186
4330
3383
4012
5142
3468
3580
6446
2432
4031
3928
5905
3002
2750
3182
3912
6947
5484
4280
4663
3447
2430
2230
6580
3526
7902
5231
4091
3852
7029
3867
2917
3373
3993
6651
4089
3190
3903
3455
6924
4184
4800
4437
2014
1066
2635
5798
2966
6138
4263
98
150
2229
6119
4732
3761
4222
6436
5944
2642
2643
2637
6942
4256
217
4934
2799
2609
3419
6956
4171
3233
6658
410
4855
3910
6600
5483
4430
4629
2629
4368
4550
3964
3925
3432
2518
858
4633
4885
3961
5952
3384
6222
2512
6189
2217
2024
2426
3001
4097
5708
4979
2418
3878
390
2219
3120
4305
1276
2633
2194
4155
4164
4902
6585
3882
4245
3458
2639
2427
2008
4021
3209
7534
7251
5253
4298
4422
4224
3022
3752
7454
3126
4178
5046
5225
6239
2644
2756
5945
7317
400
4639
2630
4701
3553
7236
7765
4087
5450
4674
4212
3004
4148
5039
5477
4918
3007
7032
7017
7318
5741
4281
5465
4253
7051
4647
2631
6624
3759
4853
3908
135
391
660
860
2645
3192
5701
5664
5463
94
6812
2835
7244
2222
7088
3678
7253
7248
7231
4299
4162
4303
4435
2425
3010
4399
7708
4146
4088
5479
3675
4098
5956
5157
2968
4575
6134
124
612
2234
6218
3575
5082
4164
4146
5843
4510
2437
2439
2431
7043
4003
3906
5680
5684
4113
5160
4419
1672
895
5107
4898
4847
7241
3941
5796
4897
3889
3557
6603
7345
3870
5233
2025
2213
856
3926
3760
406
2438
2970
4851
7279
5396
4378
2918
7240
7472
7468
115
609
4848
4638
4725
2961
4383
7030
6800
4268
5219
2294
2640
1490
5090
3924
3902
3907
4441
2028
2576
4843
3874
7352
4316
95
3340
216
419
4813
3753
3968
6027
3512
4100
4380
4995
652
4377
6340
7490
7178
5940
4424
223
2436
4857
3762
140
3541
3191
4858
4841
4121
5890
4421
2051
6009
3160
2983
4159
6811
2835
5472
430
2977
2958
3544
7072
3860
2974
2754
2825
1067
6026
2647
5083
3341
96
397
3330
7524
5565
4066
5886
5412
616
3794
3970
4462
4235
613
2031
2224
1286
4381
4874
3895
2441
4393
2741
3556
4373
3907
656
1479
4276
2852
6802
7595
7712
1787
4093
6609
3306
2626
2601
3915
4031
4997
4856
5079
7416
617
5364
7033
7589
119
3251
2916
614
431
2422
2944
872
4722
3754
3644
5493
427
5164
7572
618
6188
3159
3850
2011
4185
5086
7200
104
5036
4838
4182
6282
120
655
4397
6223
4866
5244
5091
1856
6431
3188
4822
6599
7476
7217
6201
7066
5662
2985
2973
4826
4870
6767
3824
3993
7569
3724
4349
5716
5446
6584
7297
5043
2052
4964
5088
4728
7232
7483
5247
5659
4822
4461
4085
7615
3913
5665
5885
2006
5655
3179
2971
3154
4153
2815
5085
7026
7470
3933
5678
4410
3537
3758
5398
2204
6233
5669
3163
7464
5060
5682
2957
3197
3640
3994
7480
4646
3775
4398
7530
5746
2939
4721
2195
6613
4913
6586
6617
5686
3385
5116
3932
5236
4831
110
4395
6432
2960
5147
4624
7337
3902
5542
4526
89
99
4056
6440
4486
3979
3008
3152
6581
3946
875
2986
4417
5688
2727
4481
4249
7703
3710
4529
93
2651
3549
6958
7261
7047
2650
5080
4630
7019
2323
883
1152
5460
6780
7717
7585
3115
114
4423
1395
6961
139
608
882
4290
2324
6963
7467
3930
414
2938
2723
1579
4909
5092
5284
62
1466
2922
4871
6753
4643
6015
5772
2981
3161
5132
5302
6182
7250
7018
4286
636
4687
5076
5690
6784
7327
3473
4442
2963
2121
5093
6797
7479
6434
2962
4299
4338
4887
7249
6385
5685
91
2740
5507
5239
6030
2975
4906
7064
4427
4370
3957
6554
7080
3670
862
2768
3329
5435
5635
601
2411
3682
5095
6141
7291
6382
3342
6426
7172
6528
4064
4257
3464
90
1854
4845
3006
3922
5980
2787
3896
5094
3811
2858
4886
6293
2047
1278
6025
5640
4723
4627
7207
7226
6016
5661
3908
4621
5115
5703
4019
6825
2053
2855
2956
2347
4257
604
5650
2979
4686
4860
6476
5256
4215
4439
3165
4610
7242
7514
868
2627
4587
4293
4929
6535
3970
2408
5799
6221
2735
2942
7041
4452
4838
2959