/*--------------------------------*- C++ -*----------------------------------*\
| =========                 |                                                 |
| \\      /  F ield         | OpenFOAM: The Open Source CFD Toolbox           |
|  \\    /   O peration     | Version:  v2012                                 |
|   \\  /    A nd           | Website:  www.openfoam.com                      |
|    \\/     M anipulation  |                                                 |
\*---------------------------------------------------------------------------*/
FoamFile
{
    version     2.0;
    format      ascii;
    class       volScalarField;
    location    "5";
    object      k.air;
}
// * * * * * * * * * * * * * * * * * * * * * * * * * * * * * * * * * * * * * //

dimensions      [0 2 -2 0 0 0 0];


internalField   nonuniform List<scalar> 
4480
(
1e-15
1e-15
1e-15
1e-15
1e-15
1e-15
1e-15
1e-15
1e-15
1e-15
1e-15
1e-15
1e-15
1e-15
1e-15
1e-15
1e-15
1e-15
1e-15
1e-15
1e-15
1e-15
1e-15
1e-15
1e-15
1e-15
1e-15
1e-15
1e-15
1e-15
1e-15
1e-15
1e-15
1e-15
1e-15
1e-15
1e-15
1.00801856144e-15
1.04317838389e-15
1e-15
1e-15
1e-15
1e-15
1e-15
1e-15
1e-15
1e-15
1e-15
1e-15
1e-15
1.00131071228e-15
1.00978912396e-15
1.01571587019e-15
1.00585958211e-15
1e-15
1e-15
1e-15
1e-15
1e-15
1e-15
1e-15
1e-15
1.00251744273e-15
1e-15
1.41900111069e-15
1.43744276851e-15
1.33984314418e-15
1.17566515594e-15
1.38396429697e-15
1.79025987714e-15
1.8691941462e-15
1.56739481195e-15
1.63140775397e-15
1.70893935289e-15
1.9682189327e-15
2.24792899814e-15
2.23630390792e-15
2.01654186607e-15
2.15295145613e-15
2.18904180884e-15
2.17545704525e-15
2.49983571414e-15
2.57741626197e-15
2.35630348274e-15
2.32805598353e-15
2.20467427007e-15
2.08183493681e-15
2.08313884942e-15
2.06506392253e-15
1.8876846104e-15
1.46634829793e-15
1.20063391284e-15
1.59508355873e-15
1.58488471747e-15
1.52751953785e-15
1.43206887691e-15
2.87044148006e-15
2.78209265733e-15
2.62509302471e-15
2.57104318613e-15
3.30739324102e-15
3.89567350249e-15
3.9730621894e-15
3.63240009956e-15
4.02494008888e-15
3.96692508797e-15
4.02813837677e-15
4.83985766284e-15
5.37748157972e-15
5.71019142615e-15
5.46330061723e-15
5.28238248982e-15
5.1315983373e-15
6.44298457456e-15
6.55843367498e-15
5.96494948098e-15
5.44389726552e-15
5.05766394428e-15
4.85027174563e-15
4.7794547129e-15
4.49555640539e-15
4.01906879782e-15
3.26790779611e-15
2.58723555423e-15
2.63070227841e-15
2.89593022292e-15
2.57602559365e-15
3.18025221923e-15
5.01858876753e-15
5.01336937874e-15
4.89194565131e-15
4.92287257259e-15
6.22482111624e-15
6.99635117198e-15
7.716412238e-15
7.20828629812e-15
7.75291979317e-15
8.20985805913e-15
7.61368176461e-15
9.85332256132e-15
1.08746492275e-14
1.30171109024e-14
1.15242041062e-14
1.08919255059e-14
1.00736627516e-14
1.1962372214e-14
1.26178359366e-14
1.18491749546e-14
1.07701366446e-14
9.89358744075e-15
9.59364736357e-15
8.99743883542e-15
8.30414631916e-15
7.84060712116e-15
6.53695613403e-15
4.80297350799e-15
5.45886731225e-15
4.91869681121e-15
4.24495569246e-15
5.74668227733e-15
8.5799154502e-15
8.82103970888e-15
8.52856112406e-15
8.67646002437e-15
1.10300411487e-14
1.14982392455e-14
1.29861538616e-14
1.2076481492e-14
1.29948322391e-14
1.40440671539e-14
1.34486271672e-14
1.63126304821e-14
1.89308262518e-14
2.29316458676e-14
2.16068918145e-14
1.86423831811e-14
1.77319183079e-14
1.93226771771e-14
2.10322966963e-14
2.03258338118e-14
1.93015987104e-14
1.74322954131e-14
1.65442551631e-14
1.58485876267e-14
1.42857511801e-14
1.19548112709e-14
1.16700155418e-14
8.81412273387e-15
8.52642203221e-15
8.34923448548e-15
7.96862815623e-15
9.77148183959e-15
1.19097325556e-14
1.13999803859e-14
1.38679123877e-14
1.36481151609e-14
1.70864823836e-14
1.81462531544e-14
2.04506031864e-14
1.90403116761e-14
2.01703840339e-14
2.10043156336e-14
2.25332677328e-14
2.67282559299e-14
3.17947884857e-14
3.29035633833e-14
3.47268946305e-14
2.96190155771e-14
2.98014981185e-14
3.0214176132e-14
3.22328657505e-14
2.98562231095e-14
3.23215545621e-14
2.79355562453e-14
2.71902671663e-14
2.5446960525e-14
2.18129634085e-14
1.93068733379e-14
1.72514236585e-14
1.45790040775e-14
1.29036549174e-14
1.14155945485e-14
1.15718840155e-14
1.18893655015e-14
1.61041590055e-14
1.69049867015e-14
2.07671491621e-14
2.04850279678e-14
2.63843054714e-14
2.72484585061e-14
3.13450085166e-14
2.85355302433e-14
2.9998998728e-14
3.0500622433e-14
3.34872017699e-14
3.86762183671e-14
4.63314131362e-14
4.68129207744e-14
5.1453847071e-14
4.49241680842e-14
4.05991682846e-14
4.34735163951e-14
4.59411521026e-14
4.29447913741e-14
5.05754349295e-14
4.28533644847e-14
4.34026003517e-14
3.78029637772e-14
3.38235710513e-14
2.79609913467e-14
2.76588055832e-14
2.23454750768e-14
1.86379307858e-14
1.63459539794e-14
1.63631447049e-14
1.676379369e-14
2.20117097687e-14
2.35839412994e-14
2.90190998055e-14
2.9303253486e-14
3.65755026799e-14
4.2555159504e-14
4.32158362072e-14
4.27231586368e-14
4.40783765103e-14
4.31207153013e-14
4.74320572009e-14
5.75581324498e-14
6.33857112016e-14
6.31107733838e-14
7.03638559945e-14
6.72555748064e-14
5.85201939649e-14
5.98787238885e-14
6.36909383738e-14
6.34046586242e-14
7.90445394536e-14
7.14092427164e-14
6.68610224298e-14
6.24130631857e-14
4.76003618309e-14
4.29339477462e-14
4.10378262576e-14
3.25591936527e-14
2.69174223219e-14
2.22515979349e-14
2.19343626744e-14
2.34294746483e-14
3.09911256577e-14
2.99524061941e-14
3.82078783348e-14
3.86326310179e-14
5.06092392349e-14
5.89354684095e-14
6.20099017097e-14
6.31975366227e-14
6.49102117266e-14
6.05715847364e-14
6.78147107745e-14
7.84050270846e-14
8.52974643109e-14
8.2929842347e-14
8.90586896186e-14
8.73062896735e-14
7.91825595452e-14
7.82888789579e-14
8.9344466835e-14
9.63713962073e-14
1.18973855282e-13
1.22489253638e-13
1.08341569591e-13
8.83241850127e-14
6.7281152617e-14
6.16008720497e-14
5.94286780485e-14
4.76835977777e-14
3.63222250643e-14
3.13501215235e-14
2.90689101928e-14
3.00417482818e-14
3.73276892709e-14
4.14420205015e-14
4.83919289322e-14
5.02179736836e-14
6.35784277305e-14
7.91970504235e-14
9.03159445008e-14
9.63951960432e-14
9.91253384763e-14
8.75162764624e-14
9.57118962353e-14
1.04321590713e-13
1.0511200742e-13
1.08170817866e-13
1.11558958962e-13
1.14619965299e-13
1.04430167478e-13
1.09841925001e-13
1.23679319855e-13
1.28596966319e-13
1.69477369597e-13
1.94608497356e-13
1.64304885234e-13
1.26831589085e-13
9.10557104814e-14
8.49149033132e-14
8.58878746188e-14
6.63607437711e-14
5.19820675348e-14
4.1081394656e-14
3.62467146839e-14
3.84132728194e-14
5.00522950694e-14
5.0747986286e-14
6.01568531209e-14
6.44416006246e-14
8.32150371114e-14
1.07740492622e-13
1.33082542263e-13
1.52982843811e-13
1.61415008242e-13
1.29882701751e-13
1.37242547594e-13
1.39924879253e-13
1.37067148079e-13
1.41867080021e-13
1.49879970974e-13
1.56278712047e-13
1.38091999185e-13
1.56273980637e-13
1.59860649914e-13
1.79186605683e-13
2.28374212457e-13
2.43698947814e-13
2.32710840841e-13
1.80711891592e-13
1.21012660526e-13
1.13674418375e-13
1.19607011226e-13
9.26097095961e-14
7.06932399682e-14
5.74126667584e-14
4.59821395215e-14
4.74358819355e-14
6.61515484675e-14
6.40249746546e-14
7.71250349271e-14
8.69652964929e-14
1.1388448575e-13
1.52730753618e-13
2.09100182829e-13
2.57794790108e-13
2.69210133304e-13
1.94951507928e-13
2.01251381226e-13
1.92658022096e-13
1.85934804614e-13
1.94691426347e-13
2.10771763363e-13
2.18941088299e-13
2.0557697315e-13
1.96945370976e-13
2.09806162789e-13
2.38371280467e-13
2.89792415937e-13
3.25359466377e-13
3.01161470109e-13
2.12461854531e-13
1.61306881733e-13
1.53564292357e-13
1.53380538616e-13
1.23756151938e-13
9.21855990247e-14
7.37915253592e-14
5.72075217287e-14
6.01124635108e-14
7.81387217508e-14
8.00259321287e-14
9.66675399726e-14
1.16273406128e-13
1.60548896945e-13
2.17400793716e-13
3.20619771019e-13
4.15088650848e-13
4.33765092063e-13
3.15743505002e-13
2.98045080225e-13
2.9406843156e-13
2.57805764863e-13
2.83768305168e-13
3.24018894103e-13
3.43497141026e-13
3.06987924803e-13
2.68961622503e-13
2.5872994379e-13
2.89909710237e-13
3.5016461446e-13
3.6869026657e-13
3.61925077666e-13
2.59375267456e-13
1.92781230473e-13
1.97385547291e-13
2.01375604503e-13
1.52503966699e-13
1.08894736387e-13
8.48242587035e-14
6.36647239422e-14
7.01730889705e-14
1.07111177961e-13
1.02301940189e-13
1.22012991634e-13
1.57066613421e-13
2.26407201357e-13
3.20098577068e-13
4.92224638298e-13
6.61404665972e-13
6.74566772794e-13
5.09327035803e-13
4.58183668825e-13
4.45216055322e-13
3.81308296616e-13
4.37945893597e-13
5.15184786831e-13
5.62958602983e-13
4.25717589544e-13
3.40420436972e-13
2.88150868027e-13
3.20213465155e-13
3.67012323974e-13
4.11274113732e-13
4.06561693496e-13
2.96022394778e-13
2.41354278963e-13
2.51757402175e-13
2.38875305456e-13
1.87628754653e-13
1.22477707292e-13
8.99406950303e-14
7.47191996473e-14
8.78692321651e-14
1.37209264776e-13
1.31281176091e-13
1.55267511626e-13
2.09085099222e-13
3.23302017394e-13
4.42178415573e-13
7.31549303402e-13
9.65394008794e-13
1.04407862057e-12
7.52668560668e-13
6.80045275812e-13
6.63517887719e-13
5.6081442439e-13
7.037300077e-13
8.44089043094e-13
9.13454334029e-13
6.34900807805e-13
4.31208998562e-13
3.22219172031e-13
3.35145668882e-13
3.77801180377e-13
4.19986525055e-13
3.901154099e-13
3.30308637132e-13
2.84700839354e-13
3.02451681017e-13
2.82677728955e-13
2.09418068917e-13
1.29604562239e-13
9.51077207909e-14
8.0413632801e-14
1.17645543492e-13
1.89383483144e-13
1.66806199732e-13
2.02615575409e-13
2.89283944505e-13
4.52605157576e-13
5.92638446217e-13
1.0019292168e-12
1.40183321154e-12
1.4337276729e-12
1.07979511546e-12
1.10623023259e-12
1.00803006474e-12
8.8249378527e-13
1.09218967363e-12
1.37550500869e-12
1.60063178956e-12
1.01663729075e-12
5.06054552183e-13
3.46986907085e-13
3.45438732875e-13
3.90055901468e-13
4.05591270087e-13
3.7073087318e-13
3.38784667772e-13
3.33691288613e-13
3.51906981759e-13
3.07930519871e-13
2.25500505935e-13
1.40843371689e-13
1.01062640551e-13
9.60935110125e-14
1.50939512427e-13
2.3595818379e-13
2.26971950654e-13
2.75494185136e-13
3.85809966999e-13
5.73042286008e-13
7.31842452817e-13
1.29605291898e-12
1.79264010671e-12
1.91728907286e-12
1.43426918314e-12
1.71700162248e-12
1.57983355122e-12
1.41572307029e-12
1.77571336116e-12
2.18459975961e-12
2.77144556774e-12
1.60312070642e-12
6.4233252545e-13
3.5188978675e-13
3.5985851999e-13
3.86731089183e-13
3.94855295247e-13
3.35118370211e-13
3.3578468288e-13
3.49197102547e-13
3.45827612253e-13
3.1374047235e-13
2.18903813796e-13
1.36981355453e-13
1.07521293582e-13
1.13178904205e-13
1.90638691497e-13
2.91640558129e-13
2.85223464755e-13
3.22541216226e-13
4.89786070835e-13
6.78920220445e-13
8.08037380152e-13
1.43683619209e-12
2.06098167325e-12
2.15419702872e-12
1.94815865845e-12
2.45401010175e-12
2.43326638431e-12
2.39767735115e-12
2.83933697925e-12
3.24433915518e-12
3.95037032142e-12
2.28738943494e-12
7.29691924096e-13
3.73573975753e-13
3.4857419558e-13
3.657836677e-13
3.56118895505e-13
3.10589038304e-13
2.8973982905e-13
3.37666751115e-13
3.19879962658e-13
2.90839565473e-13
2.0580875475e-13
1.39462203875e-13
1.14685597827e-13
1.28376215895e-13
2.13742229559e-13
3.05952466674e-13
3.31874082574e-13
3.74031536085e-13
5.24932566043e-13
6.86600334567e-13
8.57889776312e-13
1.46080245232e-12
2.08539503385e-12
2.44156795134e-12
2.55761142421e-12
3.46693904501e-12
3.51966582715e-12
3.75282969521e-12
4.35805474164e-12
4.54930974024e-12
4.90185366625e-12
2.68209574191e-12
7.99945334749e-13
3.54497464446e-13
3.14382180831e-13
3.35105652653e-13
3.14709451383e-13
2.69322344595e-13
2.5832836817e-13
2.97267931168e-13
2.89501065407e-13
2.53309009732e-13
1.9379114272e-13
1.35322111058e-13
1.23061077352e-13
1.39929086483e-13
2.31855695127e-13
3.1091746532e-13
3.42480240168e-13
3.90184937089e-13
5.74945219898e-13
7.10437937075e-13
8.7191789664e-13
1.38823936183e-12
2.05388321868e-12
2.64050758635e-12
3.54079892638e-12
4.8408251521e-12
5.10141348654e-12
5.70255696966e-12
6.34737481852e-12
5.69172880827e-12
5.29360952476e-12
2.92870974389e-12
8.88351202262e-13
3.4923214923e-13
2.80646654708e-13
2.86084862477e-13
2.80881807898e-13
2.33196752514e-13
2.34776606134e-13
2.57582796833e-13
2.63013372981e-13
2.19609909981e-13
1.66606066924e-13
1.40305796849e-13
1.30378567501e-13
1.62566090694e-13
2.52145240753e-13
3.22309874239e-13
3.87720783292e-13
3.98300252755e-13
6.68097609069e-13
6.79374265807e-13
8.43641711424e-13
1.3341606238e-12
1.99649049055e-12
3.01957319217e-12
5.05867506117e-12
7.1770299167e-12
7.25286685904e-12
7.99318024691e-12
8.70819742918e-12
7.10900113864e-12
5.52602863873e-12
2.82891847196e-12
7.83191672445e-13
3.08036621718e-13
2.36933152194e-13
2.41005537641e-13
2.16341262104e-13
1.94316766961e-13
1.95220561931e-13
2.08507430237e-13
2.21322760954e-13
1.89399856268e-13
1.52794073771e-13
1.61666367571e-13
1.35289507397e-13
1.45266403652e-13
2.68492613901e-13
2.577937762e-13
3.15428491944e-13
3.24228669904e-13
6.04184210698e-13
5.76960642966e-13
7.81194619043e-13
1.17636152561e-12
1.88063763044e-12
3.39372476829e-12
7.231798526e-12
9.71987412981e-12
1.03195967154e-11
9.97158752767e-12
1.07431040197e-11
8.55898532352e-12
5.41703411099e-12
2.80435762764e-12
7.38943259532e-13
2.60300584937e-13
2.0573756901e-13
1.86569603076e-13
1.83234028577e-13
1.54790740191e-13
1.56900446098e-13
1.62870285199e-13
1.74168973393e-13
1.5167043093e-13
1.24140224247e-13
1.08495365752e-13
1.05186048403e-13
1.21685397741e-13
2.85658118498e-13
2.12730706796e-13
2.16607145452e-13
2.19740467783e-13
3.43448028886e-13
4.32910725555e-13
5.89986241532e-13
1.0025099537e-12
1.83942562214e-12
4.17982801199e-12
8.82291045495e-12
1.17282282965e-11
1.35066685503e-11
1.11955836003e-11
9.97332545773e-12
7.65599482982e-12
4.99377465266e-12
3.49826442724e-12
6.55263582416e-13
2.19497383826e-13
1.65474019779e-13
1.49415093557e-13
1.31039722223e-13
1.22150461826e-13
1.19478519565e-13
1.24291916736e-13
1.30066596275e-13
1.19095910696e-13
9.62810075006e-14
8.93559204035e-14
8.42474428254e-14
1.18282293872e-13
1.45233408286e-13
1.55329331395e-13
1.76170032023e-13
1.60948955802e-13
2.37829218985e-13
2.7704001149e-13
3.80769432513e-13
7.07672354263e-13
1.55829995006e-12
4.47332115306e-12
8.96407799175e-12
9.72089577949e-12
9.6783252887e-12
9.90649363588e-12
8.6153749935e-12
6.25609437736e-12
3.97610197084e-12
2.48979028231e-12
9.01466542009e-13
2.21750106723e-13
1.38250864172e-13
1.18796808268e-13
1.02394709612e-13
9.53022389684e-14
9.13752504584e-14
9.69519135159e-14
9.65543063889e-14
8.79721976649e-14
7.48758393194e-14
6.75695072091e-14
6.40757622538e-14
7.29556232241e-14
1.2832285165e-13
1.18874304639e-13
1.0298422577e-13
1.02807677277e-13
1.51587430373e-13
1.79138560627e-13
2.45872325762e-13
4.26224256083e-13
1.05140951499e-12
3.62055596911e-12
7.83007761542e-12
8.6705756848e-12
9.92814908979e-12
9.13854939932e-12
8.51002238041e-12
7.0944043269e-12
5.26199162075e-12
4.6904819101e-12
9.47150118117e-13
2.40092027787e-13
1.21043038915e-13
9.32946974062e-14
8.05214801608e-14
7.58607350515e-14
7.12291766902e-14
7.52559828174e-14
7.29602165598e-14
6.29166568315e-14
5.17681162948e-14
6.13174535765e-14
5.40944651616e-14
4.97520939985e-14
7.15288256913e-14
6.02797194828e-14
4.84981436084e-14
5.14813378983e-14
7.73400048667e-14
9.96785178399e-14
1.49504699064e-13
2.69494311735e-13
6.74290073969e-13
2.44910525443e-12
6.07318134402e-12
6.75314828131e-12
7.13819593227e-12
8.31031014558e-12
8.07856245657e-12
6.80057529792e-12
4.60985850616e-12
2.63882564394e-12
1.03378884999e-12
2.94525607536e-13
1.11284807146e-13
7.28526906845e-14
6.24065696525e-14
5.78145147946e-14
5.23208564592e-14
5.29390490603e-14
4.7995138705e-14
3.96945063845e-14
3.07600761636e-14
2.9074903369e-14
3.14541628796e-14
2.24220177264e-14
2.57050702465e-14
2.18695086347e-14
1.71205767583e-14
1.94972748292e-14
3.34377951863e-14
4.41849344737e-14
6.91513488096e-14
1.54297303017e-13
4.1787101246e-13
1.54572925096e-12
4.08783343087e-12
4.43794917091e-12
3.99455571236e-12
5.54368227473e-12
5.61991834349e-12
4.38830818613e-12
2.52669135591e-12
1.3492401146e-12
7.47393580572e-13
3.54238550709e-13
1.22790645816e-13
6.28089442943e-14
5.11013228899e-14
4.52843672302e-14
3.82695337344e-14
3.55581295809e-14
2.9739249569e-14
2.34049622629e-14
1.67914536019e-14
1.30625118041e-14
1.25572892557e-14
9.64576053554e-15
9.63100023002e-15
6.55148186191e-15
5.78194780806e-15
6.58838831052e-15
1.17044977683e-14
1.45359174007e-14
2.29679240112e-14
7.27293811628e-14
2.49778390257e-13
9.62271251876e-13
2.51588813095e-12
2.47435851834e-12
1.99074746142e-12
2.65467225019e-12
2.60978337763e-12
1.92162142511e-12
1.1646524359e-12
6.61465036451e-13
4.19470562078e-13
2.64516537707e-13
1.28773823189e-13
6.11919215015e-14
4.37427541202e-14
3.74093116193e-14
2.9791435972e-14
2.60653081686e-14
1.98916628007e-14
1.45956801674e-14
9.87627533225e-15
6.81530018518e-15
5.6568077921e-15
4.30077508183e-15
3.97155336312e-15
2.50267887416e-15
2.36294524086e-15
2.60214988828e-15
3.96084058734e-15
4.5321271446e-15
6.98322680489e-15
2.7449866781e-14
1.32532565262e-13
5.98384201835e-13
1.46873805557e-12
1.29073265746e-12
9.41971529259e-13
1.08340025351e-12
1.03770990501e-12
7.65430750822e-13
4.83083515338e-13
2.87129320375e-13
1.95751378396e-13
1.58466159598e-13
1.04474493401e-13
5.91456924269e-14
3.87489403068e-14
3.08684751668e-14
2.39584886849e-14
2.05192065122e-14
1.45914594069e-14
1.01448093738e-14
6.45577364937e-15
4.23166304262e-15
3.13947261002e-15
2.42488279498e-15
2.09163108216e-15
1.46532885857e-15
1.41781475266e-15
1.47115728982e-15
1.75736422949e-15
1.86459229184e-15
2.55642713158e-15
9.18483798399e-15
5.795020012e-14
3.73691180859e-13
8.39788404404e-13
6.8479842687e-13
4.72043557116e-13
4.68742642784e-13
4.33714969602e-13
3.30836075164e-13
2.15201108451e-13
1.29616248734e-13
9.16102549708e-14
8.88426777246e-14
7.34821371614e-14
5.1162882057e-14
3.44712683637e-14
2.53568048223e-14
1.89975194334e-14
1.58443311449e-14
1.10958533685e-14
7.48306606373e-15
4.58054646596e-15
2.88805213192e-15
2.1087968907e-15
1.67304012383e-15
1.46346615484e-15
1.17538057122e-15
1.14496432424e-15
1.15371976262e-15
1.20804689891e-15
1.23479631318e-15
1.42775575995e-15
3.33587353831e-15
2.05560100332e-14
2.16501914196e-13
4.77026068566e-13
3.75033769153e-13
2.54285471493e-13
2.35293398445e-13
2.1724780583e-13
1.69508475027e-13
1.07966768804e-13
6.25081896904e-14
4.5278268326e-14
5.22996499729e-14
5.14211362057e-14
4.09082264716e-14
2.96006458708e-14
2.1089520096e-14
1.49015209484e-14
1.17021802383e-14
8.31774476873e-15
5.51236548264e-15
3.38147168645e-15
2.1902903821e-15
1.62717467742e-15
1.35197647908e-15
1.21432961265e-15
1.0727300068e-15
1.05569839361e-15
1.05601099851e-15
1.06686121883e-15
1.07655059973e-15
1.1326623958e-15
1.66773407877e-15
7.15551090286e-15
1.00024581668e-13
2.57395759277e-13
1.96874380618e-13
1.33059404393e-13
1.27603785653e-13
1.22111341497e-13
9.27104260627e-14
5.35345980671e-14
2.9798774759e-14
2.51105635177e-14
3.41216419157e-14
3.7847514086e-14
3.27409699599e-14
2.45735891862e-14
1.73929760491e-14
1.18857897896e-14
8.51473643266e-15
6.02195376356e-15
4.01299118348e-15
2.56837363784e-15
1.76579802437e-15
1.37509514422e-15
1.19352362885e-15
1.10585671949e-15
1.03110311934e-15
1.0220152399e-15
1.02140972981e-15
1.02418418955e-15
1.02880316269e-15
1.04708220119e-15
1.19509925298e-15
2.74765126919e-15
3.11127299398e-14
1.15748084617e-13
8.48301549068e-14
6.00041242863e-14
6.74289525012e-14
6.56433767241e-14
4.50804567341e-14
2.28072199743e-14
1.42271303041e-14
1.65463267225e-14
2.49025526772e-14
2.97192722876e-14
2.66853425229e-14
2.03948088326e-14
1.4188983611e-14
9.41072406582e-15
6.32756500068e-15
4.29044693846e-15
2.91118663857e-15
2.00507224097e-15
1.50120286324e-15
1.2383954038e-15
1.11186184394e-15
1.0531769868e-15
1.01315686994e-15
1.00854803967e-15
1.00818846308e-15
1.00924593814e-15
1.01155487311e-15
1.01809442147e-15
1.05888713894e-15
1.44527559797e-15
7.77467969929e-15
3.58318971813e-14
2.55312716241e-14
2.07320525108e-14
3.15030250262e-14
2.99576501793e-14
1.7026320426e-14
7.77550362985e-15
7.27706531416e-15
1.27111691178e-14
1.99743150248e-14
2.4181418616e-14
2.21231010725e-14
1.66588048179e-14
1.13646364479e-14
7.43463521216e-15
4.68680513349e-15
3.08407500033e-15
2.16648442319e-15
1.63193674064e-15
1.32363359871e-15
1.15039092489e-15
1.06446017502e-15
1.02661029162e-15
1.00544598485e-15
1.00323933862e-15
1.00313398766e-15
1.00370066811e-15
1.00487521369e-15
1.00734164067e-15
1.0184718708e-15
1.09868183234e-15
2.23302731684e-15
8.58839514919e-15
6.53916887761e-15
6.40620685044e-15
1.21252015459e-14
1.05279186405e-14
5.31510621166e-15
2.95546972229e-15
4.36461709242e-15
1.02209457842e-14
1.66039936777e-14
1.99203417397e-14
1.8012753412e-14
1.29733591007e-14
8.88022978533e-15
5.55871756527e-15
3.38441515769e-15
2.25154316909e-15
1.69340935282e-15
1.39009094079e-15
1.20511668859e-15
1.09294168167e-15
1.03608725324e-15
1.01296637413e-15
1.00220080668e-15
1.00121902282e-15
1.00124083042e-15
1.00159825903e-15
1.00220464371e-15
1.0031438835e-15
1.00633643592e-15
1.02182399371e-15
1.19934027345e-15
2.28137358617e-15
2.07113338974e-15
2.35176122523e-15
4.26344215271e-15
3.45797010291e-15
1.97749518869e-15
1.63785096232e-15
2.90478952728e-15
7.58830807687e-15
1.34923799542e-14
1.59397952773e-14
1.39212124033e-14
9.76459204913e-15
6.45823403552e-15
3.84304603262e-15
2.39863914114e-15
1.71275405971e-15
1.40395892162e-15
1.23585452566e-15
1.1234335712e-15
1.05296936807e-15
1.0189403874e-15
1.00606019392e-15
1.00086874612e-15
1.00046815227e-15
1.00052681792e-15
1.00075598589e-15
1.00107424199e-15
1.0014360393e-15
1.00241947315e-15
1.00554412616e-15
1.0313003868e-15
1.17982486441e-15
1.18817080408e-15
1.30424020712e-15
1.78145694629e-15
1.51193672774e-15
1.20187218294e-15
1.24904999505e-15
2.05060472724e-15
4.95453714491e-15
1.01095704484e-14
1.21295107877e-14
1.01492668824e-14
6.85134456726e-15
4.25975497409e-15
2.57121346069e-15
1.74587736025e-15
1.38564640582e-15
1.22799724187e-15
1.1339787983e-15
1.06722325832e-15
1.02727441843e-15
1.00913325633e-15
1.00267437659e-15
1.00033540687e-15
1.00018677556e-15
1.00024009317e-15
1.00037958102e-15
1.00054595738e-15
1.00068581215e-15
1.00101335744e-15
1.00177199972e-15
1.00558484015e-15
1.0234293124e-15
1.03183842025e-15
1.06111465926e-15
1.15304994499e-15
1.08934936394e-15
1.04458511783e-15
1.10640557791e-15
1.54485784826e-15
3.06501276324e-15
6.52050078043e-15
8.45265357424e-15
6.75880868703e-15
4.3972715646e-15
2.69239328374e-15
1.77381159003e-15
1.36527541808e-15
1.19673950032e-15
1.1191814543e-15
1.06770446442e-15
1.03235146499e-15
1.01252463438e-15
1.0039963217e-15
1.00110243718e-15
1.0001267787e-15
1.0000770441e-15
1.00011318911e-15
1.00019186359e-15
1.00027606366e-15
1.00032899219e-15
1.00044413155e-15
1.0006759284e-15
1.0013504428e-15
1.00344044835e-15
1.00550977806e-15
1.01110409134e-15
1.0252524577e-15
1.01437824514e-15
1.01189702641e-15
1.04373632477e-15
1.24627391585e-15
1.95278541564e-15
3.68598172409e-15
5.25993739937e-15
4.08532763825e-15
2.62866727423e-15
1.76653357167e-15
1.3428542012e-15
1.16365161345e-15
1.09080723095e-15
1.05503769197e-15
1.03011575635e-15
1.01380520705e-15
1.00514381638e-15
1.00158510595e-15
1.00042300706e-15
1.00004688624e-15
1.00003203033e-15
1.00005262555e-15
1.0000934065e-15
1.0001337369e-15
1.00015251129e-15
1.00019324358e-15
1.0002762377e-15
1.00043947425e-15
1.00071631202e-15
1.00107682034e-15
1.00195195268e-15
1.00379115937e-15
1.00252463352e-15
1.00366088568e-15
1.0160338909e-15
1.09161398341e-15
1.37064838288e-15
2.07208676951e-15
2.93022375676e-15
2.33893572391e-15
1.67017767096e-15
1.30726830146e-15
1.13582740499e-15
1.0651005994e-15
1.03738797757e-15
1.02263027661e-15
1.01196558626e-15
1.00528516985e-15
1.00190656749e-15
1.00057372251e-15
1.00015180053e-15
1.00001690331e-15
1.00001300284e-15
1.00002328474e-15
1.00004264944e-15
1.00006065571e-15
1.00006654899e-15
1.00008021907e-15
1.00011136187e-15
1.00016247782e-15
1.0002112551e-15
1.0002636615e-15
1.00038289661e-15
1.00061397554e-15
1.00057533143e-15
1.0011629701e-15
1.00509294967e-15
1.02813087731e-15
1.11824312234e-15
1.3645361079e-15
1.71138902703e-15
1.49276011065e-15
1.24002144021e-15
1.10773581103e-15
1.04653303253e-15
1.02306374924e-15
1.0139647266e-15
1.00844442121e-15
1.00432167742e-15
1.00184412696e-15
1.00064669913e-15
1.00019191125e-15
1.00005144661e-15
1.0000058859e-15
1.00000503201e-15
1.00000959468e-15
1.00001797623e-15
1.00002540503e-15
1.00002691808e-15
1.00003102882e-15
1.0000423771e-15
1.00005997236e-15
1.00007181223e-15
1.00007888328e-15
1.00009442647e-15
1.00013134876e-15
1.00016662487e-15
1.00036213602e-15
1.00142127733e-15
1.00730557761e-15
1.03124677313e-15
1.10302318221e-15
1.21908121334e-15
1.1511621327e-15
1.07249127202e-15
1.03184036607e-15
1.01392888739e-15
1.00748783549e-15
1.00483374949e-15
1.00290909778e-15
1.0014415048e-15
1.00059502884e-15
1.00020354611e-15
1.00006009918e-15
1.00001660137e-15
1.0000019561e-15
1.0000018262e-15
1.00000363839e-15
1.00000695148e-15
1.00000975753e-15
1.00001001292e-15
1.00001105262e-15
1.00001490232e-15
1.00002085451e-15
1.00002429047e-15
1.00002528934e-15
1.00002752738e-15
1.00003628371e-15
1.00005265382e-15
1.00010958353e-15
1.00036248781e-15
1.00166118193e-15
1.00703238606e-15
1.0241985652e-15
1.05485280798e-15
1.03762466547e-15
1.01818129173e-15
1.00804597451e-15
1.00377410878e-15
1.0022993545e-15
1.00157388619e-15
1.00093536012e-15
1.00044848535e-15
1.00017925767e-15
1.00006000171e-15
1.00001775319e-15
1.00000510851e-15
1.00000061287e-15
1.00000061055e-15
1.00000126356e-15
1.00000245376e-15
1.00000342093e-15
1.00000341186e-15
1.00000361258e-15
1.00000479985e-15
1.00000668368e-15
1.00000771965e-15
1.00000787917e-15
1.00000826319e-15
1.00001077128e-15
1.0000163425e-15
1.00003211675e-15
1.00008835026e-15
1.00034404125e-15
1.00138337939e-15
1.00482754132e-15
1.0113704529e-15
1.00775553022e-15
1.00385883625e-15
1.00179523534e-15
1.00096701767e-15
1.00067974255e-15
1.00048307267e-15
1.00028104991e-15
1.00013032617e-15
1.00005048842e-15
1.00001659487e-15
1.00000495444e-15
1.00000149391e-15
1.00000018118e-15
1.0000001985e-15
1.00000040771e-15
1.00000079675e-15
1.00000110023e-15
1.00000106773e-15
1.00000108084e-15
1.00000141212e-15
1.00000196274e-15
1.00000226155e-15
1.0000022869e-15
1.00000235362e-15
1.00000308243e-15
1.00000475234e-15
1.00000899965e-15
1.00002119957e-15
1.00006779023e-15
1.00024507311e-15
1.00083361012e-15
1.00199203099e-15
1.00135511039e-15
1.0007123839e-15
1.00036926936e-15
1.00024195986e-15
1.00019226991e-15
1.00013837671e-15
1.00007834105e-15
1.00003516029e-15
1.00001323342e-15
1.0000042853e-15
1.00000130738e-15
1.00000042117e-15
1.00000006666e-15
1.00000006214e-15
1.00000012795e-15
1.00000024039e-15
1.00000032781e-15
1.00000031434e-15
1.00000030324e-15
1.0000003848e-15
1.00000052503e-15
1.00000060818e-15
1.00000061431e-15
1.00000062473e-15
1.00000082029e-15
1.00000127967e-15
1.00000237138e-15
1.00000501513e-15
1.0000132028e-15
1.00004056095e-15
1.00012747269e-15
1.00030086892e-15
1.00020608288e-15
1.00011873264e-15
1.00007319398e-15
1.00005918994e-15
1.00005090666e-15
1.00003644016e-15
1.00002004049e-15
1.00000873045e-15
1.00000320472e-15
1.00000104427e-15
1.00000033579e-15
1.0000001178e-15
1.00000002714e-15
1.00000003452e-15
1.00000004556e-15
1.00000007867e-15
1.00000010084e-15
1.00000009249e-15
1.00000008178e-15
1.0000001079e-15
1.00000013738e-15
1.00000015453e-15
1.00000015882e-15
1.00000016219e-15
1.00000021111e-15
1.00000032558e-15
1.00000058238e-15
1.00000115164e-15
1.00000258203e-15
1.00000653375e-15
1.00001782668e-15
1.000040136e-15
1.00002820816e-15
1.00001869629e-15
1.00001432029e-15
1.00001381037e-15
1.00001233133e-15
1.00000870543e-15
1.00000466493e-15
1.00000198849e-15
1.00000073024e-15
1.00000024208e-15
1.00000009606e-15
1.00000004103e-15
1.00000001589e-15
1.00000002056e-15
1.00000002532e-15
1.00000003058e-15
1.00000004271e-15
1.00000004162e-15
1.00000003598e-15
1.0000000398e-15
1.00000004063e-15
1.00000005122e-15
1.00000005365e-15
1.00000005132e-15
1.00000005975e-15
1.00000008468e-15
1.00000013971e-15
1.00000025112e-15
1.00000050219e-15
1.00000105911e-15
1.00000237539e-15
1.0000048974e-15
1.00000362876e-15
1.00000290352e-15
1.00000275366e-15
1.00000299067e-15
1.00000270122e-15
1.00000188441e-15
1.00000099157e-15
1.00000042505e-15
1.00000016221e-15
1.0000000557e-15
1.00000003332e-15
1.00000001679e-15
1.00000001325e-15
1.00000000953e-15
1.00000001674e-15
1.00000002338e-15
1.0000000326e-15
1.0000000273e-15
1.00000002505e-15
1.00000002715e-15
1.00000001856e-15
1.00000002584e-15
1.00000002237e-15
1.00000002162e-15
1.00000002922e-15
1.00000002227e-15
1.00000003408e-15
1.00000005787e-15
1.00000010032e-15
1.00000017533e-15
1.00000032708e-15
1.00000058263e-15
1.00000047414e-15
1.00000046484e-15
1.00000051811e-15
1.0000006059e-15
1.00000054813e-15
1.00000037829e-15
1.00000020773e-15
1.00000008922e-15
1.00000004264e-15
1.00000002358e-15
1.00000001374e-15
1.00000000921e-15
1.00000000318e-15
1.00000001287e-15
1.00000001465e-15
1.00000003117e-15
1.00000003004e-15
1.00000003038e-15
1.00000002602e-15
1.00000002455e-15
1.00000002233e-15
1.0000000249e-15
1.00000002172e-15
1.00000001308e-15
1.0000000147e-15
1.00000001701e-15
1.00000002359e-15
1.0000000214e-15
1.00000002604e-15
1.00000003834e-15
1.00000005223e-15
1.00000008199e-15
1.00000006871e-15
1.00000008794e-15
1.00000010291e-15
1.00000012462e-15
1.00000011708e-15
1.00000008696e-15
1.00000005782e-15
1.00000003838e-15
1.00000002828e-15
1.00000001822e-15
1.00000001439e-15
1.00000000299e-15
1.00000000508e-15
1.00000001221e-15
1.00000002066e-15
1.00000002583e-15
1.00000003174e-15
1.00000002901e-15
1.0000000293e-15
1.00000002932e-15
1.00000002792e-15
1.00000002477e-15
1.00000002722e-15
1.00000001963e-15
1.00000002214e-15
1.00000001847e-15
1.00000001787e-15
1.00000001684e-15
1.00000002124e-15
1.00000001247e-15
1.00000001209e-15
1.00000001353e-15
1.00000001812e-15
1.00000002106e-15
1.00000002746e-15
1.00000003366e-15
1.00000004006e-15
1.00000003183e-15
1.00000003521e-15
1.00000003002e-15
1.00000002701e-15
1.00000002254e-15
1.0000000144e-15
1.00000001001e-15
1.00000001437e-15
1.00000001567e-15