/*--------------------------------*- C++ -*----------------------------------*\
| =========                 |                                                 |
| \\      /  F ield         | OpenFOAM: The Open Source CFD Toolbox           |
|  \\    /   O peration     | Version:  v2012                                 |
|   \\  /    A nd           | Website:  www.openfoam.com                      |
|    \\/     M anipulation  |                                                 |
\*---------------------------------------------------------------------------*/
FoamFile
{
    version     2.0;
    format      ascii;
    class       volScalarField;
    location    "5";
    object      nut.air;
}
// * * * * * * * * * * * * * * * * * * * * * * * * * * * * * * * * * * * * * //

dimensions      [0 2 -1 0 0 0 0];


internalField   nonuniform List<scalar> 
4480
(
2.38385713878e-18
2.38385713878e-18
2.38385713878e-18
2.38385713878e-18
2.38385713878e-18
2.38385713878e-18
2.38385713878e-18
2.38385713878e-18
2.38385713878e-18
2.38385713878e-18
2.38385713878e-18
2.38385713878e-18
2.38385713878e-18
2.38385713878e-18
2.38385713878e-18
2.38385713878e-18
2.38385713878e-18
2.38385713878e-18
2.38385713878e-18
2.38385713878e-18
2.38385713878e-18
2.38385713878e-18
2.38385713878e-18
2.38385713878e-18
2.38385713878e-18
2.38385713878e-18
2.38385713878e-18
2.38385713878e-18
2.38385713878e-18
2.38385713878e-18
2.38385713878e-18
2.38385713878e-18
1.14202887838e-17
1.18716376549e-17
1.13162712046e-17
1.13006916285e-17
1.15758709456e-17
1.19215987306e-17
1.12586903711e-17
1.10716073104e-17
1.21805398788e-17
1.25866761571e-17
1.39829550357e-17
1.36033828147e-17
1.24311693855e-17
1.21451903355e-17
1.1590432349e-17
1.25661521415e-17
1.20720167427e-17
1.35197725027e-17
1.33333996627e-17
1.16610404438e-17
9.62807798418e-18
8.93144300025e-18
7.76497975289e-18
1.03941836035e-17
1.23388922876e-17
1.28939042064e-17
1.2884131829e-17
1.08236334411e-17
1.29560541547e-17
1.34804686959e-17
1.24788817407e-17
1.25350371326e-17
3.94260337856e-17
3.85964130188e-17
3.36692873353e-17
3.056802198e-17
4.12681485101e-17
4.76000851351e-17
4.17429091655e-17
3.74637750537e-17
4.13175055422e-17
4.90660754897e-17
5.70340630983e-17
6.3564435455e-17
6.55735317184e-17
5.91142698561e-17
5.33014559496e-17
5.77211805878e-17
5.6564908055e-17
7.02519007146e-17
7.4727343007e-17
6.25850096957e-17
5.19729717209e-17
5.10825828335e-17
4.77961232456e-17
5.77369542885e-17
5.96482244871e-17
5.63804749143e-17
3.09263517781e-17
3.22390314621e-17
4.84926957221e-17
4.57869375161e-17
3.97406651278e-17
4.23655347917e-17
1.10053452969e-16
1.06102718675e-16
9.71581780675e-17
1.03867962018e-16
1.48648649012e-16
1.63985443075e-16
1.51067234267e-16
1.32329675905e-16
1.58715511963e-16
1.66861497469e-16
1.7080172841e-16
1.9203695641e-16
2.36458086909e-16
2.49950652404e-16
2.31477404824e-16
2.3119656923e-16
2.09369405101e-16
2.7983024993e-16
2.8853502537e-16
2.35221435957e-16
2.06078546424e-16
2.0576789771e-16
1.88039221317e-16
2.16331471963e-16
1.7572961861e-16
1.9263219906e-16
1.4193708202e-16
1.21511221263e-16
1.21164257637e-16
1.15430923028e-16
8.72311487718e-17
1.12799965063e-16
1.98108509869e-16
1.58644557669e-16
2.08959027135e-16
2.50772863689e-16
3.62237345968e-16
2.15914222507e-16
3.69487519284e-16
3.39171821865e-16
3.95837249956e-16
4.13258838076e-16
3.50730614069e-16
4.30388547504e-16
5.28142284547e-16
6.27737779684e-16
5.96854195128e-16
5.94746911172e-16
5.17334402753e-16
6.56845425213e-16
6.42061458812e-16
5.39552599609e-16
4.8022749417e-16
4.80234856699e-16
4.45317782384e-16
4.64589854859e-16
4.35538981741e-16
4.50973089e-16
3.74079755143e-16
2.83229945973e-16
2.91549028742e-16
1.76120936914e-16
1.68361788937e-16
1.78018893243e-16
3.15766734828e-16
2.93188186188e-16
3.96575381815e-16
4.93795870774e-16
2.08112602508e-16
3.62727810498e-16
6.68086888081e-16
6.86926513621e-16
7.1637079455e-16
7.37122034858e-16
6.89946537947e-16
7.98435849922e-16
9.45698100935e-16
1.02285901651e-15
1.16379927533e-15
1.09372266748e-15
1.06443679048e-15
1.1551758968e-15
1.15341145557e-15
8.93813347265e-16
9.55349568226e-16
8.51762605136e-16
8.12779593905e-16
7.96791304469e-16
7.84025273031e-16
7.8705314859e-16
7.30161738326e-16
6.18826701253e-16
5.365350794e-16
9.17344681853e-17
3.83566964791e-16
2.88568763725e-16
4.72366945819e-16
4.20969512927e-16
6.91448277496e-16
5.19693960894e-16
4.66498766973e-16
3.81950371467e-16
8.50722599983e-16
1.17015509187e-15
1.16282897788e-15
1.12455424607e-15
1.22475503496e-15
1.23412146148e-15
1.53896290113e-15
1.58547052952e-15
1.87366489657e-15
1.82367224532e-15
1.8983023863e-15
1.93877691757e-15
1.75842299965e-15
1.47899721407e-15
1.74836725844e-15
1.45961389895e-15
1.30876919187e-15
5.59127890978e-16
1.35659064711e-15
1.27949699971e-15
1.12912924452e-15
1.11564566768e-15
4.23092589337e-16
3.40866149814e-16
5.92419181948e-16
3.72398986858e-16
8.89854176315e-16
7.80279913075e-16
1.34591917175e-15
1.19869432494e-15
2.4474707566e-16
4.41457416439e-16
1.72667953701e-15
1.85790722001e-15
1.97085394204e-15
1.7451752413e-15
1.9175591767e-15
2.10209001836e-15
2.26522981099e-15
2.28006944079e-15
2.28248859458e-15
2.84691196582e-15
2.81838334336e-15
2.96782712724e-15
2.78244075423e-15
2.36095711816e-15
2.97891749544e-15
2.33152752095e-15
9.63300679242e-16
9.7655472311e-16
1.31721702627e-15
2.08302527843e-15
1.90243317767e-15
1.83664795257e-15
1.48758706417e-15
2.44756144763e-16
1.07165747738e-15
6.91551286935e-16
1.44549154455e-15
1.53910330297e-15
2.03859859034e-15
1.53972852639e-15
1.25318512395e-15
1.63448690998e-15
2.48005795278e-15
2.85717876071e-15
3.11207219283e-15
2.66562364176e-15
2.92652880691e-15
3.30342840012e-15
3.22279543218e-15
1.64274756929e-15
2.46837500976e-15
4.14633530974e-15
4.02231395494e-15
4.18840810752e-15
4.16143509303e-15
3.88081939407e-15
4.95869399119e-15
4.40790956795e-15
2.24802021667e-15
1.62410309144e-15
1.318841392e-15
3.28749049664e-15
3.14819329994e-15
2.78495314352e-15
2.21640322668e-15
1.65608072883e-15
1.59105559595e-15
1.28913962104e-15
2.08970951859e-15
2.35567405654e-15
2.85071676159e-15
2.93852375997e-15
1.93633391543e-15
3.86562646853e-15
3.77089785344e-15
4.52912309009e-15
4.64398092246e-15
3.95875156653e-15
4.42693019723e-15
4.77615936221e-15
4.71319151757e-15
4.64265286706e-15
5.1609811343e-15
5.5465476878e-15
5.54773322235e-15
5.73961981368e-15
6.16899057081e-15
5.90747635766e-15
7.65276093068e-15
8.18613643771e-15
3.62131882064e-15
5.78277261992e-16
1.86490544077e-15
4.68318975859e-15
4.60143594277e-15
3.9047789506e-15
3.17179649642e-15
2.51638075341e-15
2.11646582178e-15
2.08099104344e-15
2.91598785568e-15
3.34352981228e-15
3.87550952552e-15
3.88977101614e-15
4.85697265466e-15
5.6809147323e-15
6.11133938094e-15
6.98978244995e-15
7.28947270311e-15
5.81380623936e-15
6.56655647623e-15
6.60361665877e-15
6.03652863495e-15
6.25596501237e-15
6.98701114265e-15
7.33385293082e-15
7.32999122257e-15
7.92461397991e-15
8.56942131814e-15
8.89009044853e-15
1.09858823223e-14
1.15783420648e-14
3.50873568231e-15
9.22981333499e-16
1.54957892909e-15
6.53730007337e-15
6.04899881903e-15
5.27445662689e-15
4.43545781438e-15
3.47271941716e-15
2.81662078874e-15
2.73615676479e-15
4.00403070478e-15
4.28920149054e-15
4.95555637702e-15
5.17854613555e-15
6.62769609759e-15
7.74001485941e-15
9.46758155675e-15
1.12289022758e-14
1.14058561289e-14
8.93963782092e-15
9.40682859088e-15
9.08641237315e-15
8.39925180378e-15
8.71569786273e-15
9.86818027557e-15
1.0500910069e-14
9.86084140499e-15
1.07082862375e-14
1.10878832908e-14
1.18566124129e-14
1.41499797551e-14
1.52181583707e-14
6.83722663347e-15
1.58859053672e-15
2.63465047395e-15
8.42851321659e-15
8.26363249546e-15
7.12955907238e-15
5.84117397658e-15
4.68396074645e-15
3.6554935604e-15
3.66293443676e-15
5.3617377499e-15
5.46607522312e-15
6.28201382173e-15
6.93404179521e-15
8.73251953295e-15
1.11541154811e-14
1.45834679232e-14
1.7827741992e-14
1.78223161455e-14
1.35289864483e-14
1.3563087131e-14
1.2628310947e-14
1.16347524827e-14
1.2570224147e-14
1.43381482985e-14
1.51405054292e-14
1.42868189411e-14
1.40388845172e-14
1.36126904487e-14
1.46082876233e-14
1.75477450772e-14
1.90459639116e-14
1.75329482107e-14
3.20606542725e-15
9.28604253556e-15
1.12189534332e-14
1.01765155384e-14
8.77894921554e-15
7.28594171912e-15
5.87292481723e-15
4.6043984694e-15
4.78707057689e-15
6.47052392358e-15
6.74597681384e-15
7.81414357048e-15
8.72067933133e-15
1.15014186929e-14
1.49556161957e-14
2.15726839254e-14
2.64125695549e-14
2.72800635109e-14
2.11998563981e-14
1.94890226027e-14
1.88053088833e-14
1.65387181395e-14
1.89441466412e-14
2.21858588787e-14
2.28639157561e-14
2.06408878155e-14
1.82078521501e-14
1.64185439232e-14
1.74617855814e-14
2.00122080069e-14
2.20283380352e-14
2.08191951779e-14
1.37474175109e-14
1.43098842388e-14
1.40301013905e-14
1.33173749988e-14
1.11288844072e-14
8.44129679401e-15
6.72373096061e-15
5.34555003782e-15
5.71300053447e-15
8.31986386646e-15
8.21991957363e-15
9.29512452106e-15
1.11731881419e-14
1.60019381204e-14
2.14023655703e-14
3.08195874308e-14
3.8059404554e-14
4.02852060231e-14
3.1092366885e-14
2.89429970782e-14
2.81100158485e-14
2.44294744547e-14
2.95208753725e-14
3.56900143561e-14
3.70810317377e-14
2.73648691097e-14
2.20758133703e-14
1.95596180014e-14
1.92683587924e-14
2.21932746433e-14
2.43136678525e-14
2.22240550757e-14
1.9827169751e-14
1.7243215966e-14
1.68293264272e-14
1.58340956018e-14
1.32400785672e-14
9.56114226344e-15
7.43203155805e-15
6.13598160853e-15
7.11081952676e-15
1.01216203422e-14
9.80500587086e-15
1.14741766581e-14
1.4353779476e-14
2.16686576235e-14
2.74466500017e-14
4.28361911864e-14
5.10826367905e-14
5.53656612261e-14
4.38123951059e-14
4.17691630933e-14
4.10097827759e-14
3.65440219062e-14
4.73327958285e-14
5.81873242019e-14
5.80299507044e-14
4.04312913616e-14
2.71793048032e-14
2.08803081018e-14
2.03473011238e-14
2.32318614527e-14
2.48588250174e-14
2.370685596e-14
2.18639110074e-14
2.02989416242e-14
1.91038764668e-14
1.83515256281e-14
1.44678866985e-14
1.03832845439e-14
8.12414797556e-15
6.9523256459e-15
8.89199413624e-15
1.26085029405e-14
1.18320786286e-14
1.40581193559e-14
1.84687272154e-14
2.60103001196e-14
3.45101417281e-14
5.31794648858e-14
6.71606743911e-14
6.93540370671e-14
5.79530568346e-14
6.40514710329e-14
6.11735533407e-14
5.77724141539e-14
7.32031676891e-14
9.11179342824e-14
9.30921997006e-14
6.35934291261e-14
3.27965602407e-14
2.26056103042e-14
2.20484166912e-14
2.37684343937e-14
2.51759409006e-14
2.37473160027e-14
2.22931252342e-14
2.15049228512e-14
2.09564173639e-14
1.95832431318e-14
1.50558095064e-14
1.11751368161e-14
8.69308274419e-15
7.93951582607e-15
1.06577193667e-14
1.46130200464e-14
1.50638395751e-14
1.77032454368e-14
2.27483612045e-14
3.18611484118e-14
3.97868779309e-14
6.31984825536e-14
7.84905000224e-14
8.31022957629e-14
7.39908325013e-14
9.31279784808e-14
9.32137220004e-14
9.13917891475e-14
1.15004432742e-13
1.40801968796e-13
1.43556188974e-13
8.77673503437e-14
4.0320231927e-14
2.4075641439e-14
2.32269732655e-14
2.39452226917e-14
2.47794348078e-14
2.28395721994e-14
2.23867906389e-14
2.16591489399e-14
2.21600381243e-14
1.97816252811e-14
1.50406182348e-14
1.1398688948e-14
8.95679119833e-15
8.6185744805e-15
1.26596093219e-14
1.66706661625e-14
1.7016973284e-14
1.98553058337e-14
2.59236645817e-14
3.65021257019e-14
4.40627284361e-14
6.68469387096e-14
8.4519055898e-14
9.30591423634e-14
9.63096938022e-14
1.27468089808e-13
1.37421445679e-13
1.46561874312e-13
1.79220872322e-13
1.92290448505e-13
1.8747394083e-13
1.20662098423e-13
4.65910015311e-14
2.43673569971e-14
2.324218142e-14
2.38536615279e-14
2.4133771985e-14
2.16177214329e-14
2.13683093683e-14
2.16117034333e-14
2.19954496206e-14
1.92719700773e-14
1.47027279653e-14
1.16280571179e-14
9.57532023632e-15
9.45675232178e-15
1.41729449135e-14
1.79612792798e-14
1.88710993108e-14
2.1804601382e-14
2.81709886804e-14
3.72094163741e-14
4.58202059986e-14
6.9266624164e-14
8.8618473223e-14
1.03276041252e-13
1.25695438257e-13
1.72526818357e-13
1.88411436339e-13
2.12046170067e-13
2.50471395379e-13
2.55395547212e-13
2.27136943473e-13
1.37603202812e-13
5.11561846455e-14
2.47233616768e-14
2.26341583309e-14
2.17935500332e-14
2.21277683422e-14
2.08289463612e-14
1.97950053358e-14
2.10154279972e-14
2.03926127844e-14
1.83541895781e-14
1.47052133953e-14
1.15355655155e-14
1.01558619998e-14
1.04765555059e-14
1.48979359877e-14
1.84136726235e-14
2.08334570684e-14
2.30069077576e-14
3.07534978883e-14
3.73515371549e-14
4.74525352323e-14
6.76539301496e-14
9.10806831232e-14
1.14884000633e-13
1.66935981195e-13
2.33011939787e-13
2.52502374966e-13
2.90824448849e-13
3.35104505104e-13
3.05558414288e-13
2.48388549446e-13
1.44785123912e-13
5.65267424824e-14
2.49237716049e-14
2.07335261234e-14
2.04965294408e-14
2.05952742354e-14
1.89584254227e-14
1.88655711893e-14
1.9639368681e-14
1.92771216702e-14
1.71809463536e-14
1.42688998335e-14
1.18214423103e-14
1.08884828282e-14
1.20477230445e-14
1.61692580501e-14
1.91833239529e-14
2.24789405756e-14
2.37767239986e-14
3.26678224769e-14
3.68771724064e-14
4.6568959812e-14
6.71584144289e-14
9.15195574593e-14
1.33134111208e-13
2.2760573634e-13
3.17359975837e-13
3.31078314869e-13
3.79788190134e-13
4.14671634064e-13
3.54105524552e-13
2.60351915917e-13
1.41868010944e-13
5.40147383019e-14
2.27506140425e-14
1.89095102748e-14
1.86537187551e-14
1.80986564774e-14
1.69097456927e-14
1.66182427e-14
1.74625767292e-14
1.77118214316e-14
1.62755986667e-14
1.34698184108e-14
1.34681285057e-14
1.12780371231e-14
1.20793943494e-14
1.7756948621e-14
1.79677962253e-14
2.09417263887e-14
2.20754013037e-14
3.20816001792e-14
3.35410398234e-14
4.4503179547e-14
6.2241197976e-14
9.13267631019e-14
1.54157668792e-13
3.05278753736e-13
3.92890097944e-13
4.342521355e-13
4.41094404741e-13
4.76281739272e-13
3.98380754536e-13
2.57808849773e-13
1.44764159579e-13
5.19597652832e-14
2.0920064756e-14
1.69682223635e-14
1.62638740926e-14
1.64290137507e-14
1.46681699305e-14
1.48733233658e-14
1.55250871873e-14
1.56718421369e-14
1.38394871084e-14
1.22510046178e-14
1.12481250985e-14
1.03988263609e-14
1.14917886288e-14
1.89028396069e-14
1.71717900558e-14
1.76885097629e-14
1.85015307022e-14
2.47142035674e-14
2.94784214064e-14
3.90149010875e-14
5.83718834612e-14
9.3155428679e-14
1.88705905725e-13
3.63135234939e-13
4.60481676657e-13
5.2653036235e-13
4.86286168489e-13
4.53934564662e-13
3.62868985453e-13
2.45272512431e-13
1.68046376652e-13
4.93617858701e-14
1.92179897909e-14
1.50759270672e-14
1.42508428508e-14
1.33088365424e-14
1.27528223719e-14
1.27923269594e-14
1.30006017384e-14
1.32739151394e-14
1.24039317417e-14
1.09292241985e-14
9.95143323878e-15
9.63471718445e-15
1.23346171474e-14
1.3834124364e-14
1.53574893667e-14
1.71923672876e-14
1.6749778581e-14
2.10388771838e-14
2.40989789156e-14
3.20467959723e-14
4.98958597007e-14
8.75405997849e-14
2.04218275252e-13
3.77619933674e-13
4.26020838173e-13
4.45292790594e-13
4.65684071328e-13
4.27737513845e-13
3.2992191789e-13
2.2028649262e-13
1.48344220434e-13
6.48950559748e-14
2.05403011124e-14
1.37951710833e-14
1.24861331235e-14
1.1527196049e-14
1.11850741922e-14
1.09675742021e-14
1.12656096548e-14
1.12408440847e-14
1.04980413414e-14
9.64264353221e-15
9.04539764331e-15
8.78429914672e-15
1.02971632704e-14
1.42609941101e-14
1.47077336468e-14
1.4369478861e-14
1.46284313426e-14
1.76726691899e-14
2.04556483992e-14
2.73321614828e-14
3.98019135969e-14
7.28179941012e-14
1.81987605508e-13
3.48826046381e-13
3.96905135841e-13
4.49321674164e-13
4.49136888659e-13
4.35447497082e-13
3.76635057167e-13
2.81316366313e-13
2.3767612986e-13
7.45950691874e-14
2.34434965357e-14
1.31134478379e-14
1.08833017065e-14
1.00530158281e-14
9.88997361662e-15
9.64274916583e-15
9.93552467091e-15
9.74293351726e-15
8.91626237112e-15
8.19210973049e-15
9.30319579356e-15
8.74764591455e-15
9.30694249263e-15
1.1850665629e-14
1.18351242635e-14
1.095597179e-14
1.15082708636e-14
1.36192383119e-14
1.67841404985e-14
2.38620809328e-14
3.36781881859e-14
5.92651999017e-14
1.4556381094e-13
2.96058785439e-13
3.35152524373e-13
3.59581517052e-13
4.19866575463e-13
4.25246291952e-13
3.8546143694e-13
2.82841433217e-13
1.86528954187e-13
8.66000891159e-14
2.91012341614e-14
1.3100342483e-14
9.46601743076e-15
8.6726573483e-15
8.51698788197e-15
8.19823533586e-15
8.30420991481e-15
7.87665126945e-15
7.1206365226e-15
6.48591121925e-15
6.75149060635e-15
7.30029519947e-15
6.76158465349e-15
7.76104140599e-15
7.67120998622e-15
6.10471464742e-15
6.77959563505e-15
9.83867668613e-15
1.2546500393e-14
1.8556593328e-14
2.80322821084e-14
4.83113428789e-14
1.1292695199e-13
2.32632375513e-13
2.54804490525e-13
2.44133891139e-13
3.20022085285e-13
3.34982168192e-13
2.9572963217e-13
2.07291232926e-13
1.32569665594e-13
7.64257185645e-14
3.59783057103e-14
1.49385584795e-14
8.78364109377e-15
7.68789183142e-15
7.40822445419e-15
6.93168008178e-15
6.73626661542e-15
6.12903070908e-15
5.45163191888e-15
4.86192486931e-15
4.65494313248e-15
4.89840300261e-15
3.44060381354e-15
3.29056688961e-15
2.47871894621e-15
1.47008082218e-15
2.17231315452e-15
4.11441483574e-15
4.28398702056e-15
6.81476575621e-15
2.18242282693e-14
4.01311732795e-14
8.74903290843e-14
1.74030831946e-13
1.75607936646e-13
1.54178009957e-13
1.97118586966e-13
2.01918632313e-13
1.70555518488e-13
1.25047040191e-13
8.47157786661e-14
5.49508049952e-14
3.17239238949e-14
1.62508392915e-14
8.878907162e-15
6.99043531329e-15
6.61024928812e-15
6.05819119761e-15
5.75245790902e-15
4.98610001756e-15
4.29718252296e-15
3.79249705156e-15
3.50254144377e-15
3.1341573485e-15
9.31455581435e-16
8.47401232576e-16
6.62067646176e-16
1.05401453746e-15
1.63424001642e-15
1.50333034032e-15
1.22950022551e-15
2.12663545329e-15
1.227697038e-14
3.30581314529e-14
6.86065377955e-14
1.26052179257e-13
1.15284236464e-13
9.32455902825e-14
1.07260698804e-13
1.06050751683e-13
8.75932861447e-14
6.64347454919e-14
4.75314523413e-14
3.33917384327e-14
2.34494092206e-14
1.46752399686e-14
8.91779598634e-15
6.5262561707e-15
5.88030459833e-15
5.38137560838e-15
5.15944913959e-15
4.34319819514e-15
3.65073219744e-15
3.18640150869e-15
1.79614874438e-15
1.62008323023e-15
6.24050751858e-16
7.20613963065e-16
8.8167527007e-16
7.9178476291e-16
1.87545471936e-15
9.7708020618e-16
8.02893171327e-16
1.20628788673e-15
4.49259306229e-15
2.57868470432e-14
5.53629964584e-14
9.05803273593e-14
7.66387602969e-14
5.84988094117e-14
5.90537391796e-14
5.56499374974e-14
4.66065042223e-14
3.70080557547e-14
2.7418192329e-14
1.98577446086e-14
1.61068217625e-14
1.18630935489e-14
8.28841108942e-15
6.15000463226e-15
5.24066900746e-15
4.74312598424e-15
4.60039576087e-15
3.92858698838e-15
3.28104771195e-15
2.69020937096e-15
1.369397672e-15
2.63303016173e-15
4.75419822487e-16
4.04721623939e-16
5.90486251344e-16
1.07894745515e-15
1.85194616254e-15
8.4072669145e-16
6.48212474726e-16
1.02639235708e-15
2.6429939523e-15
6.5494835257e-15
4.55752789675e-14
6.6781448178e-14
5.40147411374e-14
4.0006858355e-14
3.66919335864e-14
3.37506319029e-14
2.93005019043e-14
2.403134894e-14
1.74680852034e-14
1.23469103684e-14
1.12286651097e-14
9.43200785962e-15
7.29914004555e-15
5.6960556932e-15
4.75278872365e-15
4.19336985564e-15
4.02893037835e-15
3.58135067702e-15
3.02805456489e-15
1.92807524511e-15
9.1175050261e-16
1.26092419152e-15
4.55716245925e-16
5.43271710802e-16
1.04662824743e-15
1.04993561843e-15
2.5601409874e-15
1.0178458624e-15
8.01923962821e-16
1.18339903483e-15
1.32954164027e-15
4.03180659028e-15
3.6057190738e-14
5.1075787984e-14
4.02024242169e-14
2.89078736507e-14
2.5594662908e-14
2.39831194574e-14
2.13701703801e-14
1.72130074882e-14
1.17196477913e-14
8.39834421702e-15
8.35490377502e-15
7.70060269096e-15
6.40665742038e-15
5.18907528042e-15
4.35202979067e-15
3.8171107654e-15
3.56767907175e-15
3.27916718819e-15
2.87517502016e-15
1.19423791483e-15
1.078073304e-15
1.79789818991e-15
4.99400522233e-16
4.87889178893e-16
1.14238684648e-15
1.77265905255e-15
4.12792776142e-15
1.19766667184e-15
9.51948975314e-16
1.63096174603e-15
1.3192682997e-15
3.61926847754e-15
1.02284198122e-14
3.88051248203e-14
2.9265929948e-14
2.06689979896e-14
1.90965433188e-14
1.84356869945e-14
1.61880758257e-14
1.20674235237e-14
8.0914866252e-15
6.49973783692e-15
6.76310427914e-15
6.57897355982e-15
5.70860774318e-15
4.77427467781e-15
4.04525630163e-15
3.56935848354e-15
3.3119633307e-15
3.09532814269e-15
2.85789110423e-15
1.04504043823e-15
1.00174616887e-15
1.09459290367e-15
5.2604676839e-16
7.2895605941e-16
1.51958155548e-15
1.85314868582e-15
4.11850461083e-15
1.7090747062e-15
1.36621269293e-15
2.70565556405e-15
1.33633502299e-15
3.36891253235e-15
3.06623018367e-15
1.40377859599e-14
9.60866042545e-15
9.84222045066e-15
1.46126427235e-14
1.42904656919e-14
1.01893320162e-14
3.01064931536e-15
4.48149623826e-15
5.75384313522e-15
5.92992693872e-15
5.83797173336e-15
5.21489524425e-15
4.44332804587e-15
3.83652536893e-15
3.47671160008e-15
3.23725802763e-15
2.72226232776e-15
2.11733576531e-15
9.29553999325e-16
1.20895708374e-15
1.41746457934e-15
6.3515708056e-16
7.59532185349e-16
1.93699208014e-15
2.63280596588e-15
6.50335498416e-15
2.14369252385e-15
2.01035920501e-15
4.13635907504e-15
2.30848756848e-15
2.14087460194e-15
1.66035918568e-15
2.84786824287e-15
1.94461618222e-15
2.07825829801e-15
6.88194143791e-15
5.60621528009e-15
2.08671366369e-15
1.12917345211e-15
2.39459772477e-15
5.50216657383e-15
5.47797923772e-15
5.34101421451e-15
4.83023627694e-15
4.15862169686e-15
3.74731409006e-15
3.47348345228e-15
3.34011802028e-15
1.8300733989e-15
1.57127926877e-15
9.27530575233e-16
1.16554578266e-15
1.19324637796e-15
6.90965536606e-16
1.1171921254e-15
1.82767605735e-15
3.23441489396e-15
3.54449567679e-15
3.42912736904e-15
2.9983066983e-15
1.12672678985e-14
2.86774678175e-15
3.17123831794e-15
1.41807042694e-15
1.32306532918e-15
1.01231005716e-15
1.30744497115e-15
2.97804699544e-15
2.1050186692e-15
1.02555782538e-15
7.90141446341e-16
1.84425654525e-15
5.35491779636e-15
5.19103671331e-15
4.95504772405e-15
4.50301846347e-15
3.99801762306e-15
3.72833388669e-15
3.5741013517e-15
2.08541803885e-15
1.47532781512e-15
1.29175854064e-15
8.95357340039e-16
1.23852039074e-15
1.30321109469e-15
8.3156034776e-16
1.29004352396e-15
2.15275424876e-15
3.46896873649e-15
3.96817685648e-15
4.18268176692e-15
5.47512001389e-15
8.64467353049e-15
8.09308504191e-15
3.19561384268e-15
1.73496165384e-15
1.13561052932e-15
9.59695517874e-16
1.21880102305e-15
2.42772830752e-15
1.43701894507e-15
8.63855626109e-16
7.65842014377e-16
1.41297164766e-15
5.26259151616e-15
4.96979075192e-15
4.66263118308e-15
4.27679723645e-15
3.92860822001e-15
3.77829523611e-15
3.96407977745e-15
1.55544370697e-15
1.33824407824e-15
1.15355286562e-15
9.44457187996e-16
1.29413717082e-15
1.30117560663e-15
9.38495695031e-16
1.6554190085e-15
2.1608765795e-15
3.52098840664e-15
3.45834215936e-15
4.97202581688e-15
5.07960456825e-15
7.44241331724e-15
6.93301870506e-15
4.71194618547e-15
2.30813373473e-15
1.48076549437e-15
1.30674692991e-15
1.61932801165e-15
3.0159092392e-15
1.48586660401e-15
9.94106893622e-16
8.54967993581e-16
1.13455153781e-15
5.52461900977e-15
4.81241864713e-15
4.45359549962e-15
4.15003583032e-15
3.98757184501e-15
3.54642917955e-15
2.89059234102e-15
1.33199932679e-15
1.26618789157e-15
1.10115236889e-15
1.00031154606e-15
1.34689591621e-15
1.36539251515e-15
1.10135996863e-15
1.98584672617e-15
2.31657951552e-15
3.56758613424e-15
3.69987960563e-15
5.38787132005e-15
7.03254035293e-15
6.6542891992e-15
1.13686790297e-14
4.65003912975e-15
2.92503975051e-15
2.10032694305e-15
1.94874335145e-15
2.17603707771e-15
3.72594407568e-15
1.92925010147e-15
1.27699517919e-15
1.00828782539e-15
1.01018931274e-15
2.25139899884e-15
4.90153356957e-15
4.39316182598e-15
4.20378907956e-15
2.43760465188e-15
2.71656189333e-15
2.01789980201e-15
1.25481186078e-15
1.24471124747e-15
1.11506620886e-15
1.12397502954e-15
1.40624894343e-15
1.44925483998e-15
1.28528204189e-15
2.32207638292e-15
2.50849572612e-15
3.65846968414e-15
3.92009820673e-15
5.21480791193e-15
6.31399159082e-15
6.25862786151e-15
7.87122533027e-15
6.27709401591e-15
3.80880535041e-15
2.97632568042e-15
2.85151866783e-15
2.92156936233e-15
4.53308239332e-15
2.45374702259e-15
1.62102663778e-15
1.22204572902e-15
1.03303106387e-15
1.32362024408e-15
2.0556100133e-15
2.70941724833e-15
1.88930955019e-15
1.80402091122e-15
2.13146706967e-15
1.66949860215e-15
1.29058032797e-15
1.28000586441e-15
1.18899885863e-15
1.26948031589e-15
1.47954202391e-15
1.59487618956e-15
1.55694986641e-15
2.6146632898e-15
2.83534604305e-15
3.87720578602e-15
4.4861115785e-15
5.46799543274e-15
7.48270394614e-15
6.42868735826e-15
8.33259273791e-15
7.30478323287e-15
4.73029690795e-15
4.35837855482e-15
4.29097105716e-15
3.75467232439e-15
5.16844679354e-15
3.10364289893e-15
2.05219335121e-15
1.52368904832e-15
1.17243401578e-15
1.12527961918e-15
1.32957545732e-15
1.52064707203e-15
1.37416205764e-15
1.65162383705e-15
1.83903848724e-15
1.58270327837e-15
1.40206271986e-15
1.34955553166e-15
1.32198718146e-15
1.46723887235e-15
1.60838472121e-15
1.82302057309e-15
1.87925098081e-15
2.87740599225e-15
3.31202763852e-15
4.07660038388e-15
5.23166446539e-15
5.46846069992e-15
8.01677092827e-15
6.74225334697e-15
8.38017961119e-15
1.0095180334e-14
6.10295904719e-15
6.63544176875e-15
6.40066962912e-15
4.84399397123e-15
6.10465386401e-15
3.82972751188e-15
2.58433192384e-15
1.93729103427e-15
1.43641231617e-15
1.21075889548e-15
1.17722336084e-15
1.27761477175e-15
1.32887899127e-15
1.70600276862e-15
1.83469644357e-15
1.66791215703e-15
1.57612897343e-15
1.48071589083e-15
1.53416638503e-15
1.69068233696e-15
1.79502450423e-15
2.13929477801e-15
2.24514915301e-15
3.1476658109e-15
3.90483067407e-15
4.40938980072e-15
6.32659060197e-15
5.77792992333e-15
9.56432472562e-15
7.32632753541e-15
9.18350836445e-15
1.23784051444e-14
7.88030928087e-15
1.08305178875e-14
1.01598486711e-14
6.35243333679e-15
7.28121365387e-15
4.72811101576e-15
3.2358236364e-15
2.4591469051e-15
1.82075779701e-15
1.48116487941e-15
1.31715146094e-15
1.3469722825e-15
1.51805448138e-15
1.92338158278e-15
1.98447497033e-15
1.8608227328e-15
1.80087706804e-15
1.6895336389e-15
1.81237066876e-15
1.95447205651e-15
2.07378532414e-15
2.56784007523e-15
2.63163246421e-15
3.49785873527e-15
4.61241949938e-15
4.86627967939e-15
7.41524166416e-15
6.10786383709e-15
1.07122197825e-14
7.87280609681e-15
1.09331781717e-14
1.52272942357e-14
1.09780238573e-14
1.93390674155e-14
1.71824568336e-14
8.41445384993e-15
8.89447234573e-15
5.79469743801e-15
4.08700863891e-15
3.13732245387e-15
2.34051085913e-15
1.90472492991e-15
1.63957956658e-15
1.63458513222e-15
1.89303288798e-15
2.24809668249e-15
2.25151152565e-15
2.1529165959e-15
2.10694306961e-15
1.99941721054e-15
2.17021053586e-15
2.28359799387e-15
2.45722404424e-15
3.08737961677e-15
3.06604306601e-15
3.98974302177e-15
5.3827043723e-15
5.4781836485e-15
8.57849221313e-15
6.79915140284e-15
1.24950578414e-14
9.05379291767e-15
1.32938677529e-14
1.69442243266e-14
1.57768012253e-14
4.028676513e-14
3.58936661119e-14
1.09902747227e-14
1.08551685825e-14
7.01447955464e-15
5.07459529978e-15
3.9688607907e-15
2.98434548303e-15
2.49353404216e-15
2.12809029993e-15
2.09257866428e-15
2.3913574036e-15
2.6533527429e-15
2.61829418576e-15
2.54829423657e-15
2.50564580593e-15
2.41008079042e-15
2.62834602554e-15
2.73796271156e-15
2.96380924266e-15
3.68490297116e-15
3.608748244e-15
4.67776542186e-15
6.22166832015e-15
6.31299658433e-15
9.78972947611e-15
7.74205771145e-15
1.44038841237e-14
1.02992811866e-14
1.63800244419e-14
1.84173267659e-14
2.22467537925e-14
5.71515820872e-14
8.89131810646e-14
1.38483565747e-14
1.29678189299e-14
8.46987120714e-15
6.28386738943e-15
4.96902463546e-15
3.82273218141e-15
3.25871524519e-15
2.76875214434e-15
2.70455422112e-15
2.99784200076e-15
3.15678792398e-15
3.10080759854e-15
3.07024035005e-15
3.01350312049e-15
2.97431992617e-15
3.19238452036e-15
3.3211433271e-15
3.63392877926e-15
4.36941280962e-15
4.3051392366e-15
5.55799333109e-15
7.1638674797e-15
7.3435549459e-15
1.11352845317e-14
8.84039903975e-15
1.63341810551e-14
1.16398586844e-14
2.00358560507e-14
1.92384349031e-14
2.89999947186e-14
4.09359246628e-14
6.97612220141e-14
1.65761621675e-14
1.48508831854e-14
1.00958478941e-14
7.53547753602e-15
6.22990095403e-15
4.83513082251e-15
4.20743687427e-15
3.60152374354e-15
3.48575513232e-15
3.73473341702e-15
3.79589824548e-15
3.72192329163e-15
3.74904025587e-15
3.65796697363e-15
3.7087520327e-15
3.87741422973e-15
4.08958783299e-15
4.44328978099e-15
5.18004798358e-15
5.21695940332e-15
6.60243701437e-15
8.34035998513e-15
8.58435403011e-15
1.26421049477e-14
1.01819274715e-14
1.84021257614e-14
1.3114473832e-14
2.40425749079e-14
1.99054579938e-14
3.3369260555e-14
3.15578970935e-14
4.49087452721e-14
1.86578578001e-14
1.66052056063e-14
1.19667451086e-14
9.0681307761e-15
7.77022203033e-15
6.03386481114e-15
5.40814857823e-15
4.63466421275e-15
4.45428268101e-15
4.6501006637e-15
4.61896761469e-15
4.52194919776e-15
4.61456726205e-15
4.47691298219e-15
4.62041425143e-15
4.73814994029e-15
5.09031528865e-15
5.42101854783e-15
6.17089726031e-15
6.35425493987e-15
7.77634648606e-15
9.76333645158e-15
1.00732037851e-14
1.45263812695e-14
1.17711919455e-14
2.04233192779e-14
1.48662695247e-14
2.67756072056e-14
2.05218909604e-14
3.43950301701e-14
2.74650172434e-14
3.60191874788e-14
2.01295046556e-14
1.80601920926e-14
1.38965311629e-14
1.07807592566e-14
9.55443892011e-15
7.46216473704e-15
6.8591349751e-15
5.95792256999e-15
5.66752509019e-15
5.78979877754e-15
5.67472516296e-15
5.55303468029e-15
5.69639658774e-15
5.52547685813e-15
5.77813861e-15
5.82538876534e-15
6.31900504599e-15
6.60849200614e-15
7.42039180825e-15
7.73228138171e-15
9.13999189324e-15
1.15384946753e-14
1.18701355663e-14
1.66801301239e-14
1.3564058105e-14
2.27891963887e-14
1.67807068843e-14
2.886629404e-14
2.16013380766e-14
3.41581579202e-14
2.63243549876e-14
3.21186224976e-14
2.17302029706e-14
1.96827544838e-14
1.61743589902e-14
1.27060706715e-14
1.16199116357e-14
9.23112967859e-15
8.61630034643e-15
7.55749889834e-15
7.19052582486e-15
7.21828775175e-15
7.01221110554e-15
6.86562169993e-15
7.06402282045e-15
6.85200125886e-15
7.20251004122e-15
7.19739252363e-15
7.8152204913e-15
8.03175267089e-15