/*--------------------------------*- C++ -*----------------------------------*\
| =========                 |                                                 |
| \\      /  F ield         | OpenFOAM: The Open Source CFD Toolbox           |
|  \\    /   O peration     | Version:  v2012                                 |
|   \\  /    A nd           | Website:  www.openfoam.com                      |
|    \\/     M anipulation  |                                                 |
\*---------------------------------------------------------------------------*/
FoamFile
{
    version     2.0;
    format      ascii;
    class       volScalarField;
    location    "5";
    object      omega.air;
}
// * * * * * * * * * * * * * * * * * * * * * * * * * * * * * * * * * * * * * //

dimensions      [0 0 -1 0 0 0 0];


internalField   nonuniform List<scalar> 
4480
(
419.488225083
419.488225083
419.488225083
419.488225083
419.488225083
419.488225083
419.488225083
419.488225083
419.488225083
419.488225083
419.488225083
419.488225083
419.488225083
419.488225083
419.488225083
419.488225083
419.488225083
419.488225083
419.488225083
419.488225083
419.488225083
419.488225083
419.488225083
419.488225083
419.488225083
419.488225083
419.488225083
419.488225083
419.488225083
419.488225083
419.488225083
419.488225083
87.5634599905
84.2343768458
88.3683310446
88.4901590869
86.386588508
84.5539750344
92.655393257
90.3211224857
82.0981672364
79.4490926373
71.5156415397
73.5111268734
80.4429550421
82.337120488
86.2780584789
79.5788550654
82.8362005548
73.9657416423
75.097929831
86.595113774
105.495185214
112.620052782
128.783336444
96.2076521008
81.0445521925
77.5560283368
77.61485316
92.390416346
77.1839935258
74.1813969944
80.3371218324
79.776389126
35.9914750341
37.2429108325
39.7942234665
38.4606225653
33.535895041
37.6104343524
44.7787225081
41.8376100568
39.4846623134
34.8293466684
34.5095338782
35.3645711166
34.1037587776
34.1126071756
40.3919821283
37.9244115687
38.4594816833
35.5838872501
34.4909394374
37.6496463641
44.7935899459
43.1590210943
43.5565647471
36.0798188109
34.6207106798
33.4811761212
47.4142022459
37.2416247754
32.8932746463
34.6143420689
38.4371910469
33.8026861681
26.0822482405
26.2207480833
27.0187551571
24.752995401
22.2497362942
23.7562153655
26.2999598071
27.4496259037
25.3594625951
23.7737593641
23.5837096865
25.2027409375
22.7417960198
22.8452751423
23.6018743228
22.84801417
24.5097813352
23.0246178752
22.7301128054
25.3588685772
26.4166132767
24.5794606474
25.793936561
22.0932010933
25.5822350321
20.8639511849
23.0236365973
21.2921533282
21.7118672595
25.0879932946
29.5310291097
28.1937340802
25.3325249423
31.6012692297
23.4110280775
19.6308025525
17.1843714778
18.2283845177
20.8840944153
21.2526095431
19.5861298906
19.8661403041
21.7080615698
22.8940166239
20.590377907
20.73654211
19.3082401032
18.3135469917
19.4722459941
18.2118528269
19.6520687599
21.9611117864
22.4271554115
20.6015604714
21.5433736156
19.3664126354
19.0663675751
17.385975599
17.4747658599
16.9578590692
18.7236683168
20.4141578457
25.2132964331
32.2813054988
27.1716887939
30.0866137329
21.5055233258
17.570944874
15.4259876971
16.2849998192
17.7062820117
17.5804562098
18.1398129823
19.0525672681
19.4922742959
20.4307340204
20.0178325759
21.7969605479
18.5658233963
17.04489057
16.6584981528
16.7270432413
18.2348602441
22.7405798694
20.2037027622
20.4661431578
20.3551556746
19.8905127828
18.2210340298
15.1893316129
15.9827815254
14.2432812224
14.8357855105
17.5857502286
20.7750637769
33.8618834327
25.2128830372
27.0802992517
20.0563264658
15.5461838223
14.0037798185
15.8576192112
18.4049861881
16.2716137445
17.3459592233
18.6779034511
18.3981833833
21.6577190852
20.6598797557
20.7531851086
18.534207848
16.2414138029
15.6990257894
15.5841426923
18.3305528629
20.1868014526
18.486707759
19.1390039965
20.7754486698
19.5549062413
16.0792523927
15.089424471
15.2785199234
13.0677727704
13.4958589461
15.2774435382
18.4876328316
31.9264174208
18.0975259027
21.6652850063
15.4297149472
14.4990392622
13.9907417619
15.3828736211
18.1533445233
15.3589640731
15.2213201029
17.4771115881
17.4634515465
18.3989353592
20.4532948099
20.5313574827
18.8999846716
15.779963913
14.4051263928
14.6482643804
16.5110980468
18.1895685626
16.9777897531
18.3799522415
19.6872804751
17.324563168
15.9561344463
13.4232606951
14.538647616
12.1664443344
12.5289680414
15.1935068109
15.2690062359
24.2408538697
15.2278370991
15.3231698313
14.2348277601
13.7079821315
13.3850319616
15.9084635333
17.42533321
14.9529176208
14.1636741628
16.17659546
16.2076167126
17.4237566183
19.6679288324
18.5487187073
18.5711461702
16.2204862324
14.5488876852
14.2962964332
15.3050418786
16.3379565462
15.9405963736
16.2002513018
16.2505804265
17.0680023303
14.2686755434
13.0597937211
13.0353578538
11.6911100384
12.1446413712
13.4363002645
13.7860441397
18.1745051242
14.8303510043
12.715004485
13.4029023331
13.1469520662
13.5022722366
15.2460329236
16.4443334505
13.9535922
13.9772778593
15.3006784383
15.3186763182
16.4159152027
18.0976020161
17.862598114
17.2561548475
15.740654293
14.2729573272
13.6400809634
14.482834073
16.3134628685
15.5465271109
14.9630114975
15.7915462779
15.9423161242
14.0353526904
13.153614358
12.9152461944
12.2115997809
11.4516253187
12.4584173047
13.7346466424
14.4362698612
12.8010441464
12.3946914872
12.486597856
12.9102647624
13.0901349979
13.9408975764
14.7784207145
13.7908721385
13.5984237151
15.0531808009
14.5756602539
15.7976448518
17.4126578
17.2908284576
15.9666210179
15.6288878957
14.2469703315
13.8608549614
14.4326338107
14.4652033703
15.4268327864
16.8079761563
15.4195770404
15.0011376293
13.4651447587
12.9892925765
14.1986925751
12.5815317985
11.7196622559
11.829747734
12.8688657092
14.0391344947
12.5004773339
11.8315696751
12.1392732812
12.4439560714
12.5556506946
13.9199335634
14.0566565458
13.6240248649
14.1519414604
14.528855011
14.5896724138
15.3993538381
16.3189711752
16.277191139
15.1882076318
14.8823969561
14.0040787102
14.5937433096
14.4175985372
15.1127994609
16.1395434064
16.0136950791
15.5867641167
16.4472988192
13.2213757601
13.4868885477
14.4739025231
12.9895423624
12.1025739435
12.2572903289
12.5789141088
12.9502405119
12.3377068319
11.713152864
12.2771195855
12.5417900643
13.0414235342
13.6927714148
14.3381659239
14.4603164116
15.1052271268
14.4099122778
14.8381691632
15.2560404082
15.9809849749
15.4883018847
14.7000685845
14.4606195164
14.3892754572
14.0285626493
15.4125419644
16.3175374564
16.5145102497
17.0828563935
17.1768869952
14.6211699778
13.5624398728
13.6879338409
15.0720094749
14.0969208159
12.6525303905
12.5646977708
12.424537561
12.5572544932
12.076104296
11.8627641833
12.3708425755
13.3330674951
13.9590515946
14.5363982915
14.862303278
15.7155724658
15.9004428963
14.8936624415
15.292972167
15.6375220096
15.5880136954
14.9792075907
14.6047487219
15.0235482273
14.8728062255
14.7717380548
15.7583976387
16.6025237732
17.4975502124
16.7370895608
17.3842011938
14.8074466677
13.4718930815
14.0687185216
15.1212686074
13.7034370309
12.9002378478
12.6156533033
11.9098546439
12.2830531079
12.8741503082
12.4456132779
13.1265580529
14.05745714
14.1487362127
14.9562241621
15.9711624759
17.3782189638
16.7447765417
16.381095646
15.8305536772
15.8383423802
15.6085345726
14.8351255873
14.434984018
15.1818484169
15.5570848096
15.4205161668
14.731927178
16.6186164896
16.5370964796
16.9153463898
18.2937673665
14.9301387185
13.997057129
14.959446135
15.0861351013
14.1712719981
12.8099450795
12.1017644137
12.1772202745
12.3571174651
13.5560572454
13.3891991316
13.5319087594
14.5665536781
14.9202605446
16.1104694214
17.0778326257
18.8986722192
18.8578732277
17.1793520726
16.2810366656
16.1795026164
15.346269927
14.8677042077
14.5064076184
15.7410840944
15.7032037915
15.8653431971
15.4317249755
16.4712591042
16.2622001317
16.8948663004
16.4558054665
15.1074817777
14.0254031281
15.8319533495
15.4035002149
14.4746826735
12.4820389628
11.7067932634
11.5664364555
13.230501695
15.0202989235
14.0977933774
14.4127084341
15.663447791
17.400997124
17.1728777844
18.8405283685
20.8728280985
20.6725914385
18.6322374425
17.2709574777
16.4782002955
15.2753489394
14.9199783029
15.095875686
17.1940484241
15.986514719
15.4301106113
15.3495925311
15.6672806811
16.4106686628
16.1102725689
15.6114852364
15.1968225277
15.5169721334
16.7923255034
15.7241840791
14.9776407465
12.6032794056
11.6256388585
12.1031953481
14.1624588932
16.1471196947
15.0673372165
15.5617898492
16.959901574
17.9856130294
18.3940658548
20.5076588332
22.8389436455
23.071433289
19.3844174293
18.4370116316
16.9485084096
15.4907030872
15.4403905903
15.5154063419
19.3056501955
18.2655702848
15.9307745703
14.6160087839
15.4931301585
16.1506574468
15.9347982837
14.6727078461
14.9992327304
16.122383364
15.6059123325
15.8601969197
14.554176589
12.0172904163
12.0044434665
13.1319749526
15.0588131632
17.4942354005
16.7611160925
16.2445856502
18.8933963905
18.5994707812
18.3383419237
21.4944202357
24.3848165524
23.1486877486
20.2280640872
19.2519563559
17.7065986484
16.3594888671
15.8426691181
16.8720764885
21.0715702883
18.9569837161
15.6616492481
15.3309189748
14.997481918
15.3344872137
14.7560396164
14.3673346549
13.5593239529
15.6242543378
14.5430063115
15.0913250854
13.9979978706
11.9935946703
11.9772075499
13.5750849263
15.0810033386
17.0340019722
17.5863672332
17.1537892177
18.6337998995
18.4523274341
18.7229576475
21.0895574882
23.5322834846
23.6411845549
20.3476869143
20.0950732067
18.6807440968
17.6981724972
17.3994109589
17.8127997528
21.581049702
19.491521179
15.6373142425
14.3385624124
13.8897226146
15.3763683357
14.222376451
12.9301953121
13.0501792643
14.1452237474
14.1963694632
13.8011546984
13.1783971787
11.7308606046
12.1172459171
13.356401959
15.5629407536
16.8851413663
16.4389538924
16.9594689212
18.6952788911
19.0203132506
18.3745271432
20.5197149487
22.5501516705
22.9841193882
21.2105197516
20.7750090254
20.203427739
19.6082447408
18.9414786189
18.6273018255
21.31180981
20.2279741507
15.7155916518
14.0120104921
13.5358864208
13.9577221258
13.6381678966
12.3004282958
12.4447123163
13.1156352843
13.643809355
12.782177737
11.6761676701
11.8687545197
11.9739884388
13.4935116033
15.5941132222
16.8015655176
17.2481786669
16.7516876075
20.4512440198
18.4226235765
18.115966404
19.8658743681
21.8149054254
22.6806876523
22.2256044268
22.6147922332
21.9068013014
21.0464160144
21.0002245483
20.0759396443
21.2252274744
19.9404957688
14.4995920941
13.5397058357
12.5298407389
12.9199727306
11.9534431948
11.4914068191
11.7473649564
11.9402441845
12.4957651481
11.6370439052
11.3434397637
12.0036252626
11.9958380984
12.0259674823
15.120425228
14.3475456293
15.06220099
14.6873284632
18.8327330097
17.2016325673
17.5536810402
18.9000463337
20.5924043136
22.0146347235
23.6891642065
24.7394225018
23.7640667063
22.6064702261
22.5561954907
21.4844347425
21.0118237437
19.3719055586
14.221451069
12.4426280689
12.1248746393
11.4714121626
11.1530753676
10.5528324886
10.5491181923
10.4907807109
11.11349718
10.9592523005
10.1330648481
9.64564003359
10.1151846134
10.5888997501
15.111915693
12.3883826966
12.2456412866
11.8768804225
13.8967872442
14.685682099
15.1220745173
17.1745349688
19.7457694975
22.1499586668
24.2964868348
25.4694787893
25.6522121346
23.0226239728
21.9708438928
21.0985097562
20.3601072259
20.8172559084
13.2747138473
11.4214538677
10.9760427363
10.4846495833
9.84606894864
9.57830810027
9.33985817779
9.56047414089
9.79866112668
9.60146453369
8.80950063356
8.97920111199
8.74415317155
9.58945806413
10.498200281
10.114239879
10.246990951
9.6090199058
11.3042733653
11.4959232282
11.8816693201
14.1829874965
17.8008827205
21.9046074478
23.7383601669
22.8178880197
21.7347450782
21.2729922405
20.1417334572
18.9623484774
18.0496857685
16.7838711547
13.8911436082
10.7958547204
10.0216853664
9.51429935055
8.88288089987
8.52048339877
8.33140025084
8.60600681956
8.58959573334
8.37986771095
7.76507386893
7.47004276358
7.29435111254
7.08502150626
8.99817015974
8.082435234
7.16687270058
7.02793586472
8.57750624674
8.75741297128
8.99571466077
10.7086372881
14.4388695126
19.8945195141
22.4469408081
21.8454610481
22.0958606287
20.3469134468
19.5431652207
18.8362824753
18.7048897642
19.7347622282
12.6972215246
10.2413062582
9.23045109198
8.57227888392
8.00968401297
7.67046890035
7.38681214923
7.57443469872
7.48852657473
7.05639361121
6.31926548812
6.59100968496
6.18388829292
5.34569693946
6.03584878102
5.09328995121
4.42664005877
4.47342076916
5.67873203299
5.93885149191
6.26536719432
8.00204305075
11.3775044223
16.8249597109
20.5134305844
20.1494775966
19.8513983443
19.7927404353
18.997373074
17.6426865212
16.2983847654
14.1470028363
11.9375033044
10.1207256676
8.49480136035
7.69623457989
7.19578407704
6.78814101838
6.38196566892
6.37496518072
6.09334310523
5.57457275884
4.74259901559
4.30644209764
4.30861520256
3.31608918256
3.31206456735
2.80893556781
2.42277773591
2.51907499795
3.39860697257
3.52169394571
3.72651098116
5.50427191125
8.64954247923
13.6878683407
17.5720744882
17.4170759776
16.362151497
17.3228115484
16.7767686675
14.8389194344
12.1890893321
10.1775931059
9.77934646359
9.8458930657
8.21971182722
7.15067289565
6.64698775821
6.11271533553
5.52096076029
5.27861078115
4.85219457702
4.29320295485
3.4536637347
2.80615926604
2.55194854377
2.08059624444
1.90479563612
1.3513046937
1.24760461011
1.2894131033
1.78444525669
1.81434757862
1.94400492917
3.33250643575
6.22404903334
10.9986013534
14.4565655569
14.0902431041
12.9120064656
13.4673867698
12.9249259849
11.2668381659
9.31371453587
7.80805000988
7.63356537024
8.33807755255
7.9241336942
6.89183031031
6.2575150416
5.65928908105
4.91754634348
4.53116017203
3.98942314246
3.39656974992
2.60416163757
1.94581571541
1.60438882499
1.21384037044
1.13859619819
0.673248023877
0.595066966779
0.632561609688
0.858292570207
0.875058420065
0.946837486641
1.78266861423
4.00907611645
8.72197054483
11.6518259679
11.1960897435
10.1020490771
10.1006264699
9.78503111517
8.73846369409
7.2715491233
6.04082783571
5.86226975846
6.75778899621
7.11909949173
6.63232176622
5.93739186652
5.24946873935
4.45211232749
3.97701497912
3.35961168505
2.778842387
2.02603897587
1.4237194233
1.03138774676
0.749118005715
0.611391794095
0.31431007597
0.277502631148
0.295403104245
0.382532398768
0.394257092707
0.445580407601
0.863269632744
2.24727745982
6.74983661948
9.27120081023
8.93540584708
8.06928486005
7.93756075899
7.79362905164
7.09849581479
5.81498011887
4.7273812649
4.6133262753
5.51584161261
6.19418003058
6.17282148593
5.60508006496
4.83846714726
4.00527405272
3.44412349904
2.82438785277
2.28069407113
1.59074740516
1.02551814365
0.673751163398
0.443836237216
0.345613053996
0.146180079118
0.121877252694
0.128624774969
0.158972649177
0.170335001051
0.205019693911
0.400663511763
1.07974846076
4.75042433312
7.14309260402
6.94317442342
6.35604698665
6.41267372543
6.43685150709
5.78517308611
4.49274691461
3.57842253243
3.66717397107
4.65769078177
5.45176986396
5.6045268643
5.19669179256
4.43729383363
3.5535908974
2.90453771582
2.32251614512
1.82043135766
1.23330663541
0.758438013001
0.446304188618
0.270826468042
0.177360554611
0.0637549097851
0.0502244027328
0.0517667955677
0.0607297249465
0.0676469014333
0.0880749903234
0.179323553535
0.468737950587
2.77405365255
5.03948679868
4.89707733932
4.60287761048
4.98556226786
5.09155373694
4.338310103
3.11012460222
2.54263398436
2.98994216822
4.08402572124
4.91487687456
5.11046054308
4.7356393689
3.99652044808
3.11381841401
2.38663183023
1.83642779339
1.39573805259
0.928807980825
0.544840705135
0.293202901905
0.158749296595
0.0920628186433
0.0268546607058
0.0192900273388
0.0190971324498
0.0214218016767
0.0249898915501
0.0351506267213
0.0751844291909
0.194127224092
1.24936579751
2.98280407943
2.89859762043
2.90309788199
3.53095067393
3.56066886707
2.78479401873
1.88998255755
1.75828385599
2.54569140135
3.68211869126
4.51731140388
4.6745798141
4.27181304154
3.50756109205
2.63653093664
1.91051783153
1.38610407061
1.01864855321
0.66901090009
0.385003857295
0.195373092083
0.0940941185956
0.045621318669
0.0108177667342
0.00691641952905
0.00650801241377
0.00698878617256
0.00843459678431
0.0127510576458
0.0287610619279
0.0746661413427
0.444348177264
1.39236606967
1.40439949275
1.53575930257
2.15587458219
2.09633827373
1.49780348272
1.0331338724
1.19790851
2.20916156715
3.36839142053
4.14209244588
4.24229059958
3.74917283754
2.96222111287
2.13841010338
1.44777002435
0.992049093074
0.704661932266
0.459281885966
0.25905612592
0.12417630336
0.0533777556768
0.0222326315378
0.00418254580523
0.00231733063604
0.00203529520736
0.00209851180357
0.00260609564583
0.00419486363055
0.00987931217449
0.0254094228402
0.131996054035
0.49593210931
0.550752026411
0.672964628557
1.09277805475
1.0045487532
0.671843999979
0.531100529852
0.803348487657
1.85762201981
3.03104355769
3.72969270248
3.72916610684
3.11962954229
2.36975859827
1.60032936435
1.01326214737
0.663412159067
0.460003430437
0.297426372224
0.165172751155
0.0752357535507
0.0291137123237
0.0103653515717
0.00154362026961
0.000723799024744
0.000583857481863
0.000577568260568
0.000729722770129
0.00123970862888
0.0030278088138
0.00769142398813
0.0349124475998
0.134601723519
0.173308430874
0.244566175378
0.442601340032
0.383883401521
0.250229301903
0.260180277865
0.518509520135
1.41707274797
2.59916866309
3.21688027341
3.09152905239
2.44235843104
1.73220377568
1.07524819653
0.645436720487
0.411533705652
0.282220983989
0.180841478562
0.0968895947526
0.0413042355053
0.0146452742548
0.0045885551743
0.000537345095111
0.000210175747056
0.000152399068869
0.00014425301922
0.000184691922013
0.000328035917845
0.000825609468715
0.00207823452056
0.00840891953125
0.0300865943281
0.0452012441845
0.0733639346441
0.141491225229
0.113340973603
0.0770721719964
0.119428219888
0.321908388591
0.941463370224
2.03420444703
2.60143046093
2.37309985048
1.74396228475
1.12742777043
0.648628081433
0.37234990257
0.23522836095
0.160529095909
0.0997639025364
0.0504644676038
0.0203005414701
0.00670528887838
0.00188344824802
0.000174145601353
5.66225353929e-05
3.61466392172e-05
3.25754584849e-05
4.19771468573e-05
7.74133707823e-05
0.000199089299105
0.00049902285865
0.00183961160038
0.00595356525102
0.0102567046407
0.0183335028353
0.035203011421
0.0262569167899
0.0221396427926
0.0526954067012
0.188567123213
0.554791698363
1.35493215752
1.89793922123
1.62861453813
1.10274415998
0.651528087061
0.349690067166
0.193866080523
0.122237665472
0.0814878964571
0.0478747020205
0.0229444157493
0.00876248712654
0.00272551794177
0.000702313656635
5.17386693076e-05
1.41007734777e-05
7.76599886273e-06
6.60790010853e-06
8.53133177201e-06
1.62403157675e-05
4.24601247929e-05
0.00010611904255
0.000361837020512
0.00106904422024
0.00203752454572
0.00384882350832
0.00701470447835
0.00519298296994
0.00632090117442
0.0215164937622
0.0943635548834
0.293800844909
0.75200581038
1.19730108011
0.971820317559
0.603998370088
0.33061386194
0.16737907922
0.0896149504387
0.0552306900513
0.035519850482
0.019790309834
0.00903760516734
0.00329405820825
0.000972979768044
0.000233803554778
1.38918263586e-05
3.23226132336e-06
1.51293107133e-06
1.20286313582e-06
1.54662353643e-06
3.02803885881e-06
8.00205880164e-06
1.99479861827e-05
6.35504921182e-05
0.000173915084651
0.000352821744574
0.000682286420574
0.00116165660459
0.00094889840784
0.00177597700883
0.00776241896591
0.0384091474925
0.134307974509
0.354641111165
0.629234680956
0.492343930743
0.283720449466
0.145796510175
0.0696753026379
0.0353481326041
0.0213641846445
0.0132992227061
0.00705148495267
0.0030735891599
0.0010716693127
0.000302210164453
6.86355963406e-05
3.33212534898e-06
6.7775056344e-07
2.67435774642e-07
1.96210082044e-07
2.49916685932e-07
5.01915341061e-07
1.33651288743e-06
3.32300022466e-06
9.94033906351e-06
2.54298433929e-05
5.30664417415e-05
0.000103031023859
0.000166390856058
0.000169888971121
0.000468801624254
0.00238744572808
0.012641128222
0.0491088264979
0.142166364393
0.272514557081
0.208843696214
0.112785165571
0.0544934023082
0.0241972476608
0.0117827201658
0.00707271136951
0.00428115151048
0.00216558579417
0.00090210228501
0.000301231876573
8.14136134208e-05
1.76438267369e-05
7.08800857995e-07
1.29217311755e-07
4.29911754967e-08
2.8727640204e-08
3.60240490573e-08
7.41089035682e-08
1.98357444191e-07
4.92111613147e-07
1.38726439159e-06
3.33195754818e-06
6.96206477186e-06
1.34616259528e-05
2.15277384227e-05
3.03467442989e-05
0.000111778474307
0.000618423386289
0.00339580994876
0.0142517945627
0.0455773451793
0.0958182402858
0.0711723322864
0.0364978183129
0.0166376807632
0.00696829452581
0.00331976810894
0.00200543544858
0.00118601203807
0.000574219511496
0.000228815409145
7.32249007306e-05
1.90163754951e-05
3.95993799706e-06
1.33185500956e-07
2.2264934162e-08
6.29587545281e-09
3.78317420418e-09
4.6417158059e-09
9.77103866177e-09
2.62713643412e-08
6.50764147294e-08
1.73518331454e-07
3.92303015082e-07
8.04707027642e-07
1.55288215382e-06
2.62863725164e-06
5.28170865849e-06
2.35432893645e-05
0.000135781039564
0.000760319401772
0.00336750247695
0.0116090702796
0.0262406552213
0.0189748342217
0.0095233285944
0.0041631395239
0.00167062739387
0.000793590512753
0.000488189134468
0.000283338620611
0.000131729050432
5.02823713803e-05
1.54350300753e-05
3.85969205707e-06
7.76231295321e-07
2.20861796725e-08
3.45137915273e-09
8.41069120894e-10
4.49635262688e-10
5.36176889212e-10
1.15389012411e-09
3.11664628343e-09
7.71565180554e-09
1.95619987385e-08
4.17501860227e-08
8.30724319663e-08
1.62003243771e-07
3.12271711874e-07
8.62954178241e-07
4.33535832038e-06
2.55217358513e-05
0.000144435748966
0.000663414636143
0.00241306571832
0.0057422804822
0.00405941953765
0.0020312185021
0.000861487294361
0.000335889863161
0.000161878093016
0.000102365871248
5.85397615997e-05
2.62314043359e-05
9.60752551604e-06
2.83277326183e-06
6.83408993781e-07
1.33205720028e-07
3.23647269726e-09
4.79933574833e-10
1.0254687479e-10
4.83972785158e-11
5.57035570793e-11
1.22414035505e-10
3.32519423606e-10
8.23594022795e-10
1.9978890799e-09
4.04255706452e-09
7.77170773143e-09
1.56401473321e-08
3.62289345776e-08
1.28282243347e-07
6.95783052796e-07
4.14209529208e-06
2.35889045259e-05
0.000110951939546
0.00041780572325
0.00102942351733
0.000713406901406
0.000359097634054
0.000148931238119
5.71376439386e-05
2.83721361161e-05
1.8575612233e-05
1.0500330945e-05
4.55112204281e-06
1.60306855247e-06
4.54808270793e-07
1.06040065282e-07
2.00831938654e-08
4.20073867311e-10
5.98115098729e-11
1.14118298906e-11
4.7350763727e-12
5.22442137881e-12
1.17087404447e-11
3.20246738972e-11
7.94490324195e-11
1.85634704603e-10
3.58174369546e-10
6.6733444087e-10
1.42096656665e-09
4.02659150265e-09
1.70324699519e-08
9.72913142751e-08
5.83588748041e-07
3.33664114972e-06
1.59303629714e-05
6.11507321184e-05
0.000154060097551
0.000104856018219
5.32670123681e-05
2.17282404753e-05
8.29990363879e-06
4.30622201927e-06
2.93210027627e-06
1.6422358851e-06
6.90984518235e-07
2.34607199223e-07
6.41859858192e-08
1.44854137523e-08
2.67123282801e-09
4.84437439085e-11
6.6829235492e-12
1.15979683564e-12
4.236327084e-13
4.45046651858e-13
1.01420187919e-12
2.79502543391e-12
6.95053758303e-12
1.57476683011e-11
2.91667990617e-11
5.30783118301e-11
1.22222742196e-10
4.17553132846e-10
2.00036152798e-09
1.18628180962e-08
7.16208566225e-08
4.10517655246e-07
1.97654464804e-06
7.64274996203e-06
1.95036863265e-05
1.30588904825e-05
6.70066528727e-06
2.70051780654e-06
1.039303589e-06
5.70107620706e-07
4.04827193969e-07
2.24949505256e-07
9.22002936831e-08
3.02572444881e-08
7.99911197487e-09
1.7502517102e-09
3.14873615371e-10
4.9829011353e-12
6.71335941809e-13
1.0862379622e-13
3.58301444014e-14
3.56288688631e-14
8.08865627429e-14
2.22806097664e-13
5.54210309522e-13
1.22411027915e-12
2.19023230964e-12
3.92990838147e-12
9.91093689751e-12
3.9556413704e-11
2.06968898571e-10
1.26306247979e-09
7.67174634241e-09
4.40243512304e-08
2.12664386426e-07
8.21646548889e-07
2.10918448179e-06
1.39089640522e-06
7.21342750433e-07
2.88517547248e-07
1.131711968e-07
6.62674570217e-08
4.91329525608e-08
2.71028517895e-08
1.08559581167e-08
3.45247603689e-09
8.84309258504e-10
1.87896486896e-10
3.30370091812e-11
4.5985596693e-13
6.17510985203e-14
1.03884364785e-14
3.90709862139e-15
3.73366021351e-15
6.99847114912e-15
1.73048499365e-14
4.14184510584e-14
8.84152789881e-14
1.52962161911e-13
2.72122037533e-13
7.51210936292e-13
3.38006741271e-12
1.88503326381e-11
1.17626919668e-10
7.18464297735e-10
4.12083225439e-09
1.98990786912e-08
7.64096741604e-08
1.96294593565e-07
1.2763923354e-07
6.69770921236e-08
2.6711867268e-08
1.08025246057e-08
6.80275446929e-09
5.26534989126e-09
2.88419866571e-09
1.13216664706e-09
3.49837087116e-10
8.7067617198e-11
1.79980378149e-11
3.09871742471e-12
3.92136039042e-14
6.20274813649e-15
1.98181924642e-15
1.45630420407e-15
1.42738095017e-15
1.63769905155e-15
2.31820550439e-15
3.91984212869e-15
6.95958878093e-15
1.09644346109e-14
1.86160804927e-14
5.36800586922e-14
2.59832822173e-13
1.51372948266e-12
9.6012874673e-12
5.89251680282e-11
3.37141179257e-10
1.62344955165e-09
6.17518159138e-09
1.58152668094e-08
1.0156833224e-08
5.40254773095e-09
2.15858786682e-09
9.10650339933e-10
6.19748595477e-10
5.00173179864e-10
2.72142232373e-10
1.04945211973e-10
3.15951840457e-11
7.66260232644e-12
1.54506089916e-12
2.6181093975e-13
4.07726354477e-15
1.6069479061e-15
1.2885148367e-15
1.24622859551e-15
1.23882805281e-15
1.24782314222e-15
1.28636133618e-15
1.38135656683e-15
1.56134148686e-15
1.79080460223e-15
2.24817600102e-15
4.57574298475e-15
1.89109820184e-14
1.08367991715e-13
6.89581873079e-13
4.24154897245e-12
2.41554797837e-11
1.15790474821e-10
4.35425216594e-10
1.10885297429e-09
7.04778085757e-10
3.81084390771e-10
1.53299367024e-10
6.82601488665e-11
5.03099914153e-11
4.22652215196e-11
2.28455592058e-11
8.67557826411e-12
2.55272437246e-12
6.05663933302e-13
1.20256471009e-13
2.09793226653e-14
1.39985382653e-15
1.22962504543e-15
1.20365343432e-15
1.19782872858e-15
1.19377382218e-15
1.19144408209e-15
1.19150979848e-15
1.19471611756e-15
1.20344101363e-15
1.21462811387e-15
1.23958127152e-15
1.3799399471e-15
2.26804178084e-15
7.90878444482e-15
4.46881348888e-14
2.69590689691e-13
1.52044690002e-12
7.24225217199e-12
2.68890340827e-11
6.79617575317e-11
4.28634068199e-11
2.36497495422e-11
9.62845730446e-12
4.57677897286e-12
3.65256684746e-12
3.18774253974e-12
1.71246581489e-12
6.42536665802e-13
1.86039076951e-13
4.40973323261e-14
9.48503159237e-15
2.56227759862e-15
1.18527710998e-15
1.17232826753e-15
1.16736291703e-15
1.16478645561e-15
1.16200199936e-15
1.15972190503e-15
1.15824169414e-15
1.15681236206e-15
1.15640217237e-15
1.15625822329e-15
1.15716691291e-15
1.16546432011e-15
1.21545083203e-15
1.53250043674e-15
3.59207513525e-15
1.61514678345e-14
8.53172901313e-14
3.9943719428e-13
1.46039319382e-12
3.65760834728e-12
2.29655441977e-12
1.2991935197e-12
5.38835718755e-13
2.76767781678e-13
2.38840946059e-13
2.16114753379e-13
1.15921530683e-13
4.37181797256e-14
1.32267990772e-14
3.92563098062e-15
1.69946672882e-15
1.26058541902e-15
1.14401753839e-15
1.14147075521e-15
1.1387836419e-15
1.13700862598e-15
1.13508871824e-15
1.13334585053e-15
1.13225903943e-15
1.13102437504e-15
1.13038999494e-15
1.12999931848e-15
1.12971438276e-15
1.13073605959e-15
1.13386653099e-15
1.15078320286e-15
1.25524139427e-15
1.877199567e-15
5.25832150927e-15
2.04713403207e-14
7.09961154849e-14
1.74546884725e-13
1.09866658747e-13
6.44623459357e-14
2.79889209436e-14
1.61239192889e-14
1.50607714803e-14
1.4155032692e-14
8.05885147925e-15
3.6900626234e-15
1.85953791425e-15
1.30853857471e-15
1.17770903593e-15
1.15053594992e-15
1.117915029e-15
1.11646674043e-15
1.11465150288e-15
1.1133664524e-15
1.11208337445e-15
1.11077666121e-15
1.1100432408e-15
1.10917652257e-15
1.10867719705e-15
1.10850312988e-15
1.10819460856e-15
1.10875609587e-15
1.10939097968e-15
1.1108698872e-15
1.11716434324e-15
1.1453355834e-15
1.29401800456e-15
1.94739782905e-15
4.07811917479e-15
8.3968332068e-15
5.69442002779e-15
3.87974443773e-15
2.32656588582e-15
1.86092251309e-15
1.85888416354e-15
1.83247326753e-15
1.49955689289e-15
1.2610248731e-15
1.16152448645e-15
1.13072225201e-15
1.12276703407e-15
1.1198155211e-15
1.09648381856e-15
1.09545981347e-15
1.09423946134e-15
1.09330215137e-15
1.09246646334e-15
1.09149656613e-15
1.09100823931e-15
1.09042324171e-15
1.09003241273e-15
1.09002978234e-15
1.08976783494e-15
1.09020342673e-15
1.09059349224e-15
1.0911030019e-15
1.09257922468e-15
1.09419555689e-15
1.10144655239e-15
1.12728815536e-15
1.20798872409e-15
1.36956844214e-15
1.27008848384e-15
1.20797187507e-15
1.14906740058e-15
1.13425196542e-15
1.13661923434e-15
1.13626512953e-15
1.11998480807e-15
1.10764381407e-15
1.10243337393e-15
1.09994861864e-15
1.09888015024e-15
1.09763023303e-15
1.07857245501e-15
1.07781988912e-15
1.07702910479e-15
1.07632507223e-15
1.075804971e-15
1.0750984232e-15
1.07478794661e-15
1.0744117381e-15
1.07409100854e-15
1.07418637148e-15
1.07397471485e-15
1.07428780448e-15
1.07459278029e-15
1.07486296943e-15
1.07581750097e-15
1.07616748847e-15
1.07742917401e-15
1.07897792369e-15
1.08223681417e-15
1.08879012037e-15
1.08559932433e-15
1.08494998579e-15
1.08293136361e-15
1.08320314109e-15
1.08352172332e-15
1.08351986365e-15
1.08285492896e-15
1.08188504087e-15
1.0814237802e-15
1.08063990055e-15
1.08015552177e-15
1.07930264683e-15
1.06362520727e-15
1.06306828894e-15
1.06257597066e-15
1.06204848023e-15
1.06174029067e-15
1.06123460923e-15
1.06103013622e-15
1.06081521725e-15
1.06055808899e-15
1.06068162935e-15
1.06051372144e-15
1.06071832313e-15
1.06097795644e-15
1.06110179253e-15
1.06180029089e-15
1.06196990422e-15
1.06267111296e-15
1.06317979544e-15
1.06359803844e-15
1.06465266375e-15
1.06456590677e-15
1.06543035286e-15
1.0653341159e-15
1.06584927523e-15
1.06591750057e-15
1.0659185664e-15
1.06593798003e-15
1.06564008893e-15
1.06546656543e-15
1.06497520825e-15
1.06467547199e-15
1.06407917805e-15
1.05120820724e-15
1.05078854547e-15
1.05049875922e-15
1.05010723017e-15
1.04993120992e-15
1.04958036258e-15
1.04944404643e-15
1.04932862115e-15