/*--------------------------------*- C++ -*----------------------------------*\
| =========                 |                                                 |
| \\      /  F ield         | OpenFOAM: The Open Source CFD Toolbox           |
|  \\    /   O peration     | Version:  v2012                                 |
|   \\  /    A nd           | Website:  www.openfoam.com                      |
|    \\/     M anipulation  |                                                 |
\*---------------------------------------------------------------------------*/
FoamFile
{
    version     2.0;
    format      ascii;
    class       volScalarField;
    location    "5";
    object      p;
}
// * * * * * * * * * * * * * * * * * * * * * * * * * * * * * * * * * * * * * //

dimensions      [0 2 -2 0 0 0 0];


internalField   nonuniform List<scalar> 
4480
(
-92.3011951144
-90.269522125
-88.2121187613
-90.8525113618
-99.1558092193
-108.74843531
-119.582236473
-124.039481623
-129.251066203
-133.019304326
-135.894028311
-138.578971409
-141.098171538
-144.965975029
-144.437154421
-146.878869322
-150.005452743
-150.528356193
-157.604264926
-141.374931058
-166.490071686
-155.563548511
-157.484137408
-152.107890766
-140.198984157
-130.564993735
-121.827773172
-116.50867515
-108.43581476
-92.1339074947
-67.1674024192
-84.3138551065
-93.2604430113
-89.5273931702
-87.9395505225
-88.8445524496
-96.5595778941
-109.498975613
-119.9032894
-124.406580706
-129.562327509
-132.826569567
-135.930207463
-138.242229935
-141.499108909
-145.312331203
-144.30947546
-147.011353206
-149.95353857
-152.461112171
-154.15031398
-147.772255499
-161.030875601
-157.710708233
-157.116109237
-151.653442692
-140.204501132
-130.407526057
-121.928558511
-115.575890417
-108.017481637
-97.1546430561
-75.6089850923
-89.5419078042
-92.670982327
-88.6820302957
-87.4229860133
-86.7967395068
-93.7706522643
-110.731886157
-121.193638076
-124.665614314
-130.225483977
-132.649591358
-136.386953747
-137.716900324
-142.274487323
-145.388707178
-143.71510613
-146.82379651
-150.084043064
-153.103266232
-151.218509427
-153.136845148
-157.401065036
-161.653931847
-159.939621788
-152.391884661
-140.709182428
-130.818419542
-121.391446062
-112.987346493
-106.53293064
-103.1041687
-103.368379712
-95.7715315517
-93.5777693397
-88.8575170883
-86.380031662
-83.3713004955
-89.5247852238
-114.35935444
-122.145863679
-124.792383362
-131.391927864
-131.916294858
-137.175599184
-136.779339798
-143.270640949
-145.968389003
-143.119660187
-146.934935232
-150.621748773
-153.674209423
-151.293889156
-159.194028344
-155.203651165
-164.161639889
-164.880331563
-154.341103866
-141.542022564
-131.113700679
-119.393054548
-103.009235602
-110.579113301
-106.045921761
-114.009455178
-100.4425797
-94.6541771001
-89.0345191258
-84.8576162963
-79.6598513363
-81.9302783273
-120.571080873
-124.121443909
-124.111822307
-122.343430614
-129.307017394
-139.327169437
-134.149547465
-144.468145275
-149.925428839
-141.861235573
-146.46594442
-151.511801858
-154.285199422
-150.942553019
-160.243115974
-152.23252501
-163.389034678
-170.019960107
-155.16539778
-143.062377134
-131.738062509
-118.439071738
-96.1579343711
-116.333983334
-102.1094254
-107.472632847
-101.158711815
-95.2899924211
-89.2647055908
-82.7072756977
-74.5118486264
-67.7753765628
-129.379568389
-127.400291597
-124.013389037
-123.041600334
-127.500882279
-133.986823336
-135.461669773
-145.514188809
-152.598468264
-138.571610729
-145.91422447
-152.560267499
-155.071002006
-151.333962284
-154.944606218
-151.863536749
-163.541498618
-174.614928541
-155.512736197
-144.034583732
-132.505468762
-120.876530797
-101.71210638
-116.912560929
-90.5404698145
-107.358834118
-101.620733524
-96.8118889291
-90.0365806499
-79.9316679906
-67.8674228518
-48.8198232816
-145.775792959
-127.850857183
-124.062334023
-123.21452235
-126.544645547
-130.176342908
-135.411360765
-148.058887186
-156.39757499
-132.820771239
-146.41843505
-153.678464274
-156.122618675
-151.774439082
-152.521922126
-150.605816521
-162.671921549
-182.706729101
-152.595117142
-145.543091409
-133.0749729
-121.59599712
-112.359098353
-118.098115466
-130.360848891
-111.581351117
-102.305418633
-99.221055167
-91.2930428786
-77.8951726919
-63.2503226973
-22.7347761127
-179.288702714
-127.459511322
-123.233612941
-121.96472518
-125.724762145
-128.755445815
-134.99943321
-149.443640266
-168.935462418
-121.454765568
-147.267858789
-156.132085655
-157.566462665
-151.847134776
-150.670628912
-149.422068608
-161.986617495
-205.744822173
-150.63890462
-147.317375065
-133.67881923
-122.464733944
-116.528951283
-117.753480412
-124.037173371
-110.588743824
-102.91632458
-100.472256328
-93.1728384093
-76.844789602
-61.4007350746
-41.9556145141
-143.036657324
-123.005099718
-121.262877716
-120.937255921
-124.796877177
-127.582691512
-133.444189757
-149.667059313
-200.746704392
-109.19273599
-147.591145754
-159.338101923
-159.414408398
-151.722966916
-148.39769523
-147.498901097
-157.592242257
-184.57294589
-183.447166288
-149.300375156
-133.931908672
-122.422472388
-119.635443907
-117.297149464
-118.452870971
-107.259743305
-103.596912419
-102.304725595
-94.9832219187
-76.6589476493
-57.8689191783
-52.8294835005
-114.081123175
-118.699594753
-119.219165917
-120.347060574
-123.581421917
-125.746349121
-131.954108639
-146.789268192
-173.893940562
-122.780934189
-152.391129409
-168.168819675
-161.846963007
-150.746193236
-144.465358714
-144.739039544
-147.070844028
-171.277527227
-229.666762586
-149.413380639
-132.629531667
-120.582426436
-121.485554473
-116.301530883
-112.586248399
-101.889112516
-106.082351006
-105.6477052
-97.6409296842
-77.3828783652
-49.1593551127
-64.1078456095
-105.491904885
-113.619763885
-117.833529841
-119.721878413
-122.073217373
-123.921968643
-130.24038684
-142.837862386
-158.049059915
-130.008880036
-157.804404164
-179.3707006
-164.64359059
-149.476789078
-142.656407682
-140.52404268
-137.844507322
-155.610709196
-275.472095512
-144.342410058
-131.930661315
-117.64555
-122.190612312
-115.714851654
-110.780967239
-96.5327283541
-108.810101506
-108.342694096
-101.437896327
-81.1797208962
-25.582692919
-73.5524973358
-100.669836791
-111.064068268
-117.281397562
-119.063535991
-119.908146347
-122.40024406
-127.875555346
-137.888797025
-143.6119934
-135.469028038
-164.151111202
-172.604839776
-167.387736587
-147.768785657
-140.431946937
-135.218515791
-133.370209179
-135.890823805
-22.0824112755
-126.220733691
-129.427181402
-116.128351142
-122.441703208
-114.976643021
-111.687515375
-98.9604380904
-108.612545423
-108.156271117
-103.508836231
-88.6204517847
-28.7854989577
-88.9541494604
-101.837231428
-116.178144273
-117.019370983
-117.635002543
-118.058013981
-120.986151557
-125.659417766
-132.359099089
-137.050417327
-137.110542794
-166.798888725
-199.608015412
-168.81871067
-144.30357656
-135.779953581
-130.359627279
-128.156840366
-123.498716298
-50.6801664715
-114.333329977
-124.278541071
-115.247576404
-121.600663826
-114.815728028
-114.022956382
-115.810384061
-108.991357143
-108.214276333
-103.047725672
-98.2909336982
-119.814954782
-106.66784021
-113.391082074
-118.006969109
-116.194633312
-116.650351539
-118.767633154
-119.885207703
-123.073825103
-127.915013306
-132.969292324
-136.42809858
-161.830508268
-211.067442086
-167.946510256
-139.801567177
-133.118526701
-127.447508253
-123.840634582
-118.397694035
-69.0125264244
-113.189049849
-121.967307696
-114.797685324
-118.605602264
-114.596518546
-115.098318869
-116.674784059
-110.331404883
-108.67517008
-105.734263604
-104.182873909
-170.492519187
-116.266769326
-119.009005316
-117.420695483
-115.202567673
-116.181591938
-116.978625384
-118.721969261
-120.026726991
-124.313044016
-128.998153742
-134.577668952
-159.789215702
-193.829537397
-162.103549242
-136.687129661
-130.369587074
-125.503326111
-121.459864864
-114.093391064
-90.7558234322
-113.176808185
-120.337098652
-116.361446149
-114.915557819
-112.728634135
-114.622414283
-114.89338173
-110.142379417
-108.85023951
-109.66591197
-105.440955531
-152.008679199
-119.144687689
-116.709838535
-116.580317363
-115.074248402
-115.34159631
-116.108796099
-117.851465308
-118.594213743
-121.399810474
-125.251228887
-131.268161317
-153.643821853
-171.353083605
-152.628035515
-132.831006805
-126.508877399
-123.701946422
-119.48155417
-112.476307014
-97.7559307786
-114.645821328
-118.207195548
-117.462948791
-112.002024601
-111.386886806
-113.765804952
-113.440220988
-109.424806856
-108.805044617
-113.291699693
-103.230493358
-146.128930882
-119.211183479
-115.140616582
-116.246572585
-115.419072764
-114.96590561
-115.410179244
-116.953939168
-117.609940637
-119.148877154
-122.858795556
-126.847175692
-144.493024086
-154.327623976
-144.021643673
-127.325087196
-122.846184809
-122.001701653
-118.180534923
-111.918874639
-101.450158091
-116.946054
-116.129124671
-114.951442089
-110.960862543
-111.251736489
-112.98745697
-112.13409872
-109.024313409
-108.210719221
-119.227501995
-108.803878487
-130.292435368
-117.851307343
-114.381085009
-115.265739943
-114.783367137
-114.573804658
-114.785946917
-115.431830715
-116.414493517
-117.45501417
-120.82987531
-122.790535079
-131.813240421
-141.719138653
-136.213783228
-123.765470175
-120.368316845
-120.955520677
-117.079723745
-111.593949353
-104.165932383
-106.607218374
-114.396310382
-113.743650043
-112.686709166
-111.4021788
-112.29680426
-111.502452115
-108.770429329
-106.89492855
-108.010337336
-110.381205444
-121.4107019
-116.332925508
-113.645582684
-114.37102578
-113.976504152
-113.904504103
-114.167270522
-114.686899207
-115.142869745
-115.992241963
-118.502202516
-120.501846129
-126.054730913
-134.66091803
-127.252576847
-120.059230931
-118.590383417
-120.357267295
-113.398792691
-111.301530201
-107.687345059
-109.229957439
-113.226560044
-113.038906932
-112.237300125
-111.596186544
-111.996690076
-111.037680344
-108.847772084
-106.773754101
-113.38428071
-111.100976783
-116.362744795
-115.025426265
-113.141985464
-113.51910646
-113.298674322
-113.204203962
-113.519805897
-113.951499937
-114.453281144
-115.140451239
-116.451324899
-118.659889667
-122.681706818
-130.868881945
-118.899477042
-117.576393612
-116.745299255
-112.630277066
-112.80913993
-111.082232742
-109.703149384
-110.225696123
-112.389163243
-112.327632887
-111.831987796
-111.617212319
-111.832739114
-110.767062155
-109.180542433
-108.239000217
-112.619657612
-111.491918773
-113.94100829
-113.972578026
-112.769666238
-112.822323076
-112.818324009
-112.854572591
-113.088726161
-113.471339281
-113.960340537
-114.446135124
-115.214208243
-116.742212862
-120.213544129
-127.135174988
-112.109174918
-116.028203547
-115.110733132
-112.629983018
-112.307143366
-110.663559948
-110.899224413
-110.818108572
-111.853417524
-111.969221197
-111.744090842
-111.614888996
-111.734563708
-110.592620645
-109.907679802
-109.974943952
-111.424766664
-111.56741528
-112.666377602
-113.196937109
-112.5277652
-112.485774392
-112.503100455
-112.678442734
-112.835227093
-113.167150433
-113.53573991
-113.86126639
-114.42837339
-115.224418201
-117.42691919
-118.517248169
-112.873845067
-114.714974215
-114.140157232
-112.582250814
-112.085649032
-110.556020153
-111.758625424
-111.313391227
-111.631567
-111.822738552
-111.530059475
-111.608265345
-111.700710147
-110.525560255
-110.250033409
-110.534155415
-111.196796021
-111.582534194
-112.327382916
-112.293296455
-112.364758702
-112.30323973
-112.385958541
-112.522255512
-112.648620339
-112.923647699
-113.201269149
-113.577702194
-113.980816433
-114.645023067
-115.881376559
-115.99068095
-113.417409279
-113.777958307
-113.516253619
-112.537071309
-112.037668608
-111.223278765
-111.760898459
-111.482702522
-111.548230242
-111.666558555
-111.488815889
-111.593805132
-111.727131663
-110.418015486
-110.462071991
-110.723528659
-111.15921654
-111.584819042
-112.14280801
-112.204419632
-112.262597579
-112.255528028
-112.334676453
-112.453308219
-112.602340716
-112.840218441
-113.099049143
-113.449610229
-113.79789094
-114.37066967
-115.140247778
-114.972426695
-113.626209254
-113.496890705
-113.20317747
-112.505241159
-112.012510888
-111.671581498
-111.638000796
-111.559021871
-111.525596872
-111.597996619
-111.411306451
-111.577143741
-111.8420256
-110.323591732
-110.566574345
-110.828336282
-111.163345586
-111.570711884
-112.014584055
-112.125435821
-112.194365108
-112.219164349
-112.298753487
-112.416010016
-112.572417245
-112.793016435
-113.046597938
-113.3662748
-113.677358562
-114.155523585
-114.707670064
-114.525158042
-113.630782814
-113.38511643
-113.003291348
-112.483173794
-112.023770151
-111.800986391
-111.622968613
-111.578345947
-111.515618648
-111.563625032
-111.400305672
-111.501959012
-111.564936822
-110.578901334
-110.657510347
-110.902594099
-111.17742947
-111.544042511
-111.910485644
-112.049625853
-112.131836636
-112.17952962
-112.264291854
-112.381878477
-112.538006179
-112.746335317
-112.992201125
-113.279612817
-113.57973742
-113.984860966
-114.383747025
-114.222146994
-113.56989053
-113.286178382
-112.901659332
-112.452717423
-112.030183549
-111.838082757
-111.626884464
-111.573142268
-111.51207736
-111.527419526
-111.387952756
-111.450600587
-111.4136682
-110.743459504
-110.750196016
-110.966852648
-111.192142181
-111.514519244
-111.823866808
-111.976179971
-112.069782468
-112.13524349
-112.225115601
-112.343500445
-112.497214794
-112.694594464
-112.92731012
-113.193535102
-113.473778594
-113.810935839
-114.099766665
-113.965128718
-113.474631569
-113.174726818
-112.812477531
-112.413764324
-112.031663851
-111.850064913
-111.631460804
-111.561913671
-111.502870115
-111.49741197
-111.369648053
-111.412823171
-111.313734943
-110.85770839
-110.829826766
-111.009364077
-111.206555414
-111.484486572
-111.74911631
-111.905603129
-112.007938835
-112.086828858
-112.181269643
-112.300245024
-112.450524642
-112.637509422
-112.85590669
-113.098429165
-113.357805239
-113.63663225
-113.844837645
-113.733864569
-113.354524272
-113.061347788
-112.726203728
-112.367405009
-112.028273554
-111.843132783
-111.636401191
-111.548734168
-111.488428815
-111.466642103
-111.353696921
-111.35355565
-111.253044292
-110.93553484
-110.896800438
-111.043027894
-111.215835113
-111.453865262
-111.683132832
-111.837844204
-111.946139569
-112.034927145
-112.133187807
-112.252155046
-112.397994946
-112.57491645
-112.777662907
-113.00001222
-113.232871631
-113.464298583
-113.613488467
-113.521359879
-113.22336195
-112.947137206
-112.63932522
-112.316060218
-112.015801988
-111.822007373
-111.63575157
-111.535320976
-111.472302721
-111.430752056
-111.336905733
-111.307883693
-111.211596652
-110.987083235
-110.950203845
-111.067840811
-111.218639434
-111.422918069
-111.623077052
-111.772652615
-111.884168869
-111.979811029
-112.080862824
-112.199110192
-112.339780068
-112.506641529
-112.694224022
-112.896516417
-113.102977737
-113.294082584
-113.401391802
-113.323503667
-113.084539722
-112.831485321
-112.55109047
-112.259611991
-111.991653957
-111.797079792
-111.627420255
-111.519889593
-111.449776724
-111.396081158
-111.316960072
-111.267895386
-111.182330853
-111.020866208
-110.990346785
-111.084674422
-111.2154652
-111.391357587
-111.56690165
-111.709624787
-111.821775206
-111.921752291
-112.024356965
-112.141128943
-112.276236594
-112.432815083
-112.605801327
-112.788599907
-112.969747843
-113.126897442
-113.204396016
-113.137525969
-112.942510629
-112.714375809
-112.460769151
-112.198124489
-111.957453483
-111.768035823
-111.610759811
-111.499628783
-111.424826336
-111.363051238
-111.29236736
-111.233290932
-111.158454169
-111.04091239
-111.018360665
-111.093003376
-111.206446927
-111.358355972
-111.513529608
-111.64756322
-111.758731116
-111.860858491
-111.963775662
-112.078309699
-112.207478626
-112.353770095
-112.512562617
-112.67671612
-112.834406097
-112.963280781
-113.019519946
-112.961080146
-112.7992367
-112.596007537
-112.368021956
-112.131786486
-111.914499992
-111.73390505
-111.586352714
-111.475183333
-111.396333278
-111.329945932
-111.26360859
-111.203245582
-111.13604936
-111.050316886
-111.035351118
-111.093462825
-111.191812002
-111.323707231
-111.461196726
-111.586221246
-111.694937308
-111.797076523
-111.899221814
-112.010766136
-112.133646475
-112.269795162
-112.41483097
-112.56144565
-112.69783801
-112.803371143
-112.844121029
-112.792485119
-112.656285107
-112.476575425
-112.272685377
-112.060697873
-111.863984004
-111.694099189
-111.555044065
-111.445951873
-111.364480535
-111.29600673
-111.232360442
-111.173280479
-111.113621922
-111.051568266
-111.042574043
-111.086209524
-111.17172844
-111.286622541
-111.408846456
-111.524928198
-111.63006131
-111.730359409
-111.83088726
-111.938505399
-112.054925852
-112.181132274
-112.312973262
-112.443250637
-112.560670624
-112.647019376
-112.676428425
-112.63034739
-112.514400312
-112.356253323
-112.17472134
-111.984950574
-111.806563817
-111.648549295
-111.517399266
-111.411512036
-111.329256063
-111.26034698
-111.198734687
-111.142447503
-111.090255869
-111.044972152
-111.040798611
-111.071602509
-111.146198704
-111.246823506
-111.355670271
-111.463001171
-111.563504037
-111.660907676
-111.758714785
-111.86180253
-111.971537533
-112.088035389
-112.207341618
-112.322576459
-112.423304221
-112.49393604
-112.514917413
-112.47355699
-112.373954375
-112.235209989
-112.074142049
-111.904590261
-111.742950719
-111.597115197
-111.473709942
-111.371871605
-111.290400327
-111.22219132
-111.1626952
-111.110043136
-111.064526777
-111.031181528
-111.030723672
-111.049938286
-111.115295994
-111.203711956
-111.300920241
-111.39974652
-111.494959185
-111.588574379
-111.682758315
-111.78084659
-111.883654603
-111.990753376
-112.098269677
-112.199783287
-112.285972688
-112.343744433
-112.358434852
-112.321162203
-112.235010752
-112.113507888
-111.970975479
-111.819841271
-111.6736691
-111.539759776
-111.424213088
-111.327059481
-111.247603526
-111.180973796
-111.124005215
-111.075153643
-111.035599856
-111.010700677
-111.012964458
-111.021493985
-111.07900926
-111.156984386
-111.243934358
-111.334644996
-111.424085901
-111.513223971
-111.603061453
-111.695727085
-111.79152814
-111.889528192
-111.986060824
-112.075158138
-112.148780099
-112.196037087
-112.206007823
-112.172356735
-112.097473724
-111.99117921
-111.86537054
-111.730912297
-111.599079329
-111.476635811
-111.369065322
-111.277095078
-111.200579912
-111.136239664
-111.082063959
-111.037068055
-111.002667078
-110.983773483
-110.988077317
-110.986436829
-111.037310508
-111.106240435
-111.184134185
-111.267144737
-111.350555408
-111.43470803
-111.519638737
-111.606577033
-111.695323342
-111.784585539
-111.870916654
-111.948976315
-112.011747471
-112.050395405
-112.05682413
-112.026426051
-111.961128953
-111.868189069
-111.757364181
-111.637983591
-111.519425053
-111.407947079
-111.30836215
-111.221964742
-111.149078358
-111.087607212
-111.036519567
-110.995226645
-110.96523704
-110.950757119
-110.956209056
-110.945099897
-110.990150188
-111.051194793
-111.121056029
-111.196748721
-111.274065921
-111.352860708
-111.432486748
-111.513485814
-111.595217193
-111.676160593
-111.753108115
-111.821309423
-111.874805585
-111.906409651
-111.910191397
-111.882741604
-111.825703273
-111.744457659
-111.647015781
-111.541237353
-111.434965204
-111.333865284
-111.242197529
-111.161637491
-111.092873476
-111.034731951
-110.986912238
-110.94913549
-110.922894013
-110.911532901
-110.917678225
-110.897477979
-110.937440263
-110.991574409
-111.054262897
-111.123037768
-111.194310303
-111.267502612
-111.341586882
-111.416525094
-111.491366275
-111.564441628
-111.632793168
-111.692250079
-111.737836546
-111.76365881
-111.765497636
-111.740783254
-111.690827993
-111.619863328
-111.534347926
-111.440820859
-111.345870601
-111.254547535
-111.170646933
-111.096069805
-111.03176338
-110.977286888
-110.93282425
-110.898365253
-110.875320078
-110.866169241
-110.872570667
-110.843483724
-110.879083933
-110.927135147
-110.983373966
-111.045649849
-111.110991621
-111.178475359
-111.24689642
-111.315755832
-111.383894727
-111.449574229
-111.510089342
-111.561813264
-111.600586686
-111.621806025
-111.622206258
-111.599990604
-111.556225351
-111.494286892
-111.419327482
-111.336833185
-111.252279587
-111.170126327
-111.093769284
-111.025209853
-110.965566055
-110.914970565
-110.873885022
-110.842544356
-110.822231805
-110.814697861
-110.821136084
-110.783257117
-110.81501049
-110.85765831
-110.90805809
-110.964257105
-111.023833318
-111.085620083
-111.148360244
-111.211211646
-111.272896844
-111.331663922
-111.38506689
-111.429977326
-111.462950481
-111.480398112
-111.479785252
-111.459870822
-111.421548503
-111.367525782
-111.30193306
-111.229341766
-111.154297369
-111.080705456
-111.011603558
-110.948998577
-110.894118011
-110.847505824
-110.8097686
-110.781351957
-110.763373375
-110.757054255
-110.763318321
-110.716812012
-110.74511459
-110.782945302
-110.828026475
-110.878564571
-110.932582689
-110.988781192
-111.045910468
-111.102902142
-111.158429716
-111.210774982
-111.257748112
-111.29667017
-111.324705767
-111.339054621
-111.337762263
-111.319969754
-111.286447701
-111.239379187
-111.182094787
-111.118364898
-111.051995132
-110.986357263
-110.924167839
-110.867375412
-110.817267242
-110.774642071
-110.740191351
-110.71451043
-110.698541152
-110.693161979
-110.699093409
-110.64412863
-110.669272694
-110.702810779
-110.743025858
-110.788305555
-110.837007949
-110.887803707
-110.939465567
-110.990812314
-111.040513986
-111.086928478
-111.128109952
-111.161777102
-111.185608247
-111.197410131
-111.195689779
-111.179854543
-111.150576254
-111.109624759
-111.059699318
-111.003898202
-110.945406587
-110.887124756
-110.831466682
-110.780278272
-110.734863704
-110.696158391
-110.664905709
-110.641778688
-110.627566745
-110.622934162
-110.628409423
-110.565127832
-110.587396946
-110.617079907
-110.652831256
-110.693239051
-110.736900312
-110.782527345
-110.828932337
-110.874901109
-110.91913643
-110.960104597
-110.996084966
-111.025146866
-111.04539458
-111.055103186
-111.053144019
-111.039110101
-111.013589252
-110.978024421
-110.934611117
-110.885893045
-110.834535562
-110.783020166
-110.733484848
-110.687640472
-110.646769824
-110.611863665
-110.583691529
-110.562945384
-110.550291945
-110.546259803
-110.551217081
-110.479718599
-110.499381288
-110.525580773
-110.557244158
-110.593144932
-110.632065972
-110.672795237
-110.714204811
-110.75510178
-110.794250072
-110.830240306
-110.86156743
-110.886594621
-110.903785425
-110.911776218
-110.909717714
-110.897335658
-110.875143876
-110.84432596
-110.806669873
-110.764269655
-110.719350721
-110.674030106
-110.630188253
-110.589388059
-110.552859813
-110.521590901
-110.496353638
-110.477823479
-110.466571601
-110.463031403
-110.467452856
-110.387804775
-110.405111327
-110.428154162
-110.456079451
-110.487823241
-110.522320234
-110.558451577
-110.595164042
-110.631321325
-110.665772489
-110.697237914
-110.724411725
-110.745910999
-110.760489472
-110.7670713
-110.76501376
-110.754140011
-110.734898598
-110.708263091
-110.675693343
-110.638918933
-110.599790123
-110.56011052
-110.521525244
-110.485440906
-110.453014269
-110.42518983
-110.402722779
-110.386249216
-110.376270094
-110.373143321
-110.377038302
-110.289308628
-110.304448819
-110.324645498
-110.349163902
-110.377087805
-110.407485641
-110.439337802
-110.471676912
-110.503444324
-110.533589039
-110.560964259
-110.584441816
-110.602859798
-110.615205111
-110.62062804
-110.618642367
-110.609140194
-110.592512183
-110.569558789
-110.541485092
-110.509699732
-110.475761618
-110.441193519
-110.407426712
-110.375712601
-110.347118513
-110.322523654
-110.302648594
-110.288078651
-110.279259957
-110.276490266
-110.279888424
-110.184102454
-110.197297724
-110.214912974
-110.236333038
-110.260763542
-110.287389113
-110.315292501
-110.343595852
-110.371331988
-110.397556818
-110.421252228
-110.441453261
-110.457181665
-110.467618125
-110.472084309
-110.470219196
-110.461958794
-110.447642104
-110.42793056
-110.403814788
-110.376453379
-110.347149639
-110.317188101
-110.287807158
-110.260108717
-110.235060606
-110.21346501
-110.195995659
-110.183180878
-110.175422005
-110.172968207
-110.175907168
-110.072090599
-110.08352927
-110.098813948
-110.117428531
-110.138681869
-110.161859365
-110.186147865
-110.210758626
-110.234823425
-110.257503961
-110.277907936
-110.295212808
-110.308598214
-110.317400678
-110.321078662
-110.319363047
-110.312220827
-110.299943206
-110.283080075
-110.262447576
-110.238995652
-110.213811701
-110.187980403
-110.162564481
-110.138525692
-110.116728407
-110.097894023
-110.082638331
-110.071434808
-110.064643374
-110.062474293
-110.064997268
-109.953162397
-109.963023254
-109.976212256
-109.992296759
-110.0106769
-110.030724506
-110.051729885
-110.072989657
-110.093736808
-110.113234546
-110.130709936
-110.145464002
-110.156812787
-110.164216427
-110.167243888
-110.165693159
-110.159552257
-110.149069196
-110.134701168
-110.11713162
-110.097120611
-110.075584366
-110.053435665
-110.031580217
-110.010850875
-109.992008169
-109.975693177
-109.96245936
-109.952726488
-109.946815869
-109.944906638
-109.947057515
-109.827206771
-109.835657494
-109.846973187
-109.860787357
-109.876581576
-109.893810304
-109.91185582
-109.930099307
-109.947870966
-109.964530284
-109.97941401
-109.99193037
-110.001512824
-110.007719787
-110.010209616
-110.008828602
-110.003578804
-109.994670653
-109.982483162
-109.96759754
-109.950604805
-109.932284297
-109.91340045
-109.894721274
-109.876960825
-109.860782047
-109.846746416
-109.835344565
-109.826945413
-109.821833457
-109.820162458
-109.821984071
-109.694111157
-109.701309065
-109.710957668
-109.722746985
-109.736229661
-109.750937069
-109.766334223
-109.781883893
-109.797006996
-109.811151829
-109.823755342
-109.834318073
-109.842370287
-109.847555636
-109.849600621
-109.84838718
-109.843926716
-109.836395247
-109.826101458
-109.813569498
-109.799208143
-109.78370833
-109.767703157
-109.751838639
-109.736722582
-109.722925677
-109.71093547
-109.701179861
-109.693982221
-109.689590485
-109.688138151
-109.689671189
-109.553759515
-109.559850683
-109.568024716
-109.57801788
-109.589449855
-109.601918331
-109.6149642
-109.628126712
-109.640909712
-109.652842472
-109.663449779
-109.672314016
-109.679047532
-109.683361673
-109.685037842
-109.683985021
-109.680219964
-109.673890753
-109.665257437
-109.654726853
-109.642671289
-109.629637383
-109.61615627
-109.602769342
-109.589990931
-109.578306989
-109.56813697
-109.559850079
-109.553726243
-109.549979916
-109.548727521
-109.55000952
-109.406031111
-109.411151924
-109.418025807
-109.426438733
-109.436064382
-109.446559293
-109.45753457
-109.468597559
-109.479328156
-109.489327906
-109.498198489
-109.505593867
-109.511195398
-109.514767862
-109.516138037
-109.515235365
-109.512078641
-109.506792129
-109.499591592
-109.490792881
-109.480731263
-109.469839139
-109.458556887
-109.447336081
-109.436608667
-109.426784657
-109.418221391
-109.41123373
-109.406061986
-109.402890676
-109.401819538
-109.402884618
-109.250797433
-109.255071233
-109.26081196
-109.2678425
-109.275887122
-109.284656525
-109.293822508
-109.303053722
-109.311997109
-109.320319584
-109.327689177
-109.333820709
-109.338454027
-109.341397554
-109.34251395
-109.341748344
-109.339119961
-109.334731532
-109.328760756
-109.321458201
-109.313111333
-109.304067009
-109.294688132
-109.285347777
-109.27640636
-109.268206231
-109.261049874
-109.255201991
-109.250868037
-109.248204158
-109.247296214
-109.24817564
-109.087922663
-109.091463968
-109.096219983
-109.102051385
-109.108724536
-109.115996533
-109.123594105
-109.131239204
-109.138638844
-109.145515925
-109.151597025
-109.156647589
-109.160456583
-109.162868307
-109.163774361
-109.163131666
-109.160958609
-109.157339773
-109.152420056
-109.146400485
-109.139521053
-109.13206135
-109.124318602
-109.11659914
-109.109201054
-109.102407811
-109.096472886
-109.091617031
-109.088013801
-109.085794271
-109.085031839
-109.08575335
-108.917260544
-108.920173795
-108.924078166
-108.928879092
-108.934371844
-108.940355196
-108.946603611
-108.95288651
-108.958962674
-108.96460344
-108.969585897
-108.973717495
-108.976828344
-108.978792464
-108.979524412
-108.978990396
-108.977207049
-108.97424344
-108.970217209
-108.965290561
-108.959659558
-108.953549973
-108.947204062
-108.940871215
-108.934796554
-108.929212517
-108.92432938
-108.920329433
-108.917358099
-108.915524295
-108.914890141
-108.91547836
-108.738651841
-108.741029771
-108.744206749
-108.748127958
-108.752612494
-108.757496197
-108.762593985
-108.76771656
-108.77266703
-108.777258535
-108.781310167
-108.784665692
-108.787188886
-108.788778219
-108.789366424
-108.788926952
-108.787474629
-108.785065349
-108.781794293
-108.777791691
-108.773216202
-108.768249312
-108.763087347
-108.757931937
-108.752982986
-108.748429431
-108.744444431
-108.741176625
-108.738747068
-108.737244795
-108.736722425
-108.737198652
-108.551923349
-108.553848871
-108.556411697
-108.559588146
-108.563219184
-108.567171981
-108.571296634
-108.575438858
-108.579439569
-108.583147162
-108.586416368
-108.589120868
-108.591152328
-108.592429353
-108.59289925
-108.592541283
-108.591367987
-108.58942436
-108.586787021
-108.583559827
-108.579870407
-108.575863978
-108.571697854
-108.567534518
-108.563535144
-108.559852752
-108.556627755
-108.55398094
-108.552011413
-108.550791597
-108.55036533
-108.550748066
-108.356886137
-108.358429224
-108.360488678
-108.363036679
-108.365950304
-108.369121716
-108.372430057
-108.375751221
-108.378957269
-108.381926239
-108.384542709
-108.386704846
-108.388327657
-108.389346234
-108.389719234
-108.389430549
-108.388490624
-108.386935344
-108.384825905
-108.382244834
-108.37929364
-108.376087871
-108.372752989
-108.369418476
-108.366213744
-108.363261003
-108.360673557
-108.358548582
-108.356966114
-108.35598463
-108.355640147
-108.355944811
-108.153338035
-108.154561907
-108.15620914
-108.158232875
-108.160549047
-108.163070561
-108.165700519