/*--------------------------------*- C++ -*----------------------------------*\
| =========                 |                                                 |
| \\      /  F ield         | OpenFOAM: The Open Source CFD Toolbox           |
|  \\    /   O peration     | Version:  v2012                                 |
|   \\  /    A nd           | Website:  www.openfoam.com                      |
|    \\/     M anipulation  |                                                 |
\*---------------------------------------------------------------------------*/
FoamFile
{
    version     2.0;
    format      ascii;
    class       surfaceScalarField;
    location    "5";
    object      phi.air;
}
// * * * * * * * * * * * * * * * * * * * * * * * * * * * * * * * * * * * * * //

dimensions      [0 3 -1 0 0 0 0];
oriented        oriented;


internalField   nonuniform List<scalar> 
8788
(
-3.85823664422e-07
2.4487437594e-07
-7.95532582845e-08
-3.48847829097e-07
4.7810094825e-07
-4.48033568826e-07
1.10323676882e-06
-6.88781695259e-07
2.03117258945e-06
-1.28818041345e-06
1.64008733851e-06
5.08610369238e-07
-3.87882469057e-07
2.0696352682e-06
-4.3439245881e-07
6.88535030431e-08
-1.44860347057e-07
-2.86919838983e-07
-7.63252248185e-09
-1.27049924417e-07
6.62383383447e-08
-5.64589635169e-08
2.42670536051e-07
-1.83244024427e-07
4.04198318284e-07
-1.66756013829e-07
-2.65692438948e-07
7.44286179348e-07
2.94362079583e-07
-5.35274439194e-07
7.2372064743e-07
-3.26536918444e-07
1.22504699253e-06
-4.20114410501e-07
9.22659491454e-07
2.38258608909e-07
-2.3843587006e-06
2.74622270964e-06
5.14299548413e-06
-8.67628538722e-06
-3.63482798129e-06
8.51517927762e-06
-5.7182955376e-07
-3.13000801348e-06
-1.06512538359e-07
-6.16691860584e-07
-5.83395458146e-07
4.92344225984e-07
-3.80873489894e-07
-1.76164413962e-07
-3.51676087754e-07
-5.20814707709e-08
-1.15858072987e-06
8.15794036012e-07
-1.66903850971e-06
4.78964197748e-07
-2.10880090211e-07
-1.54708621213e-06
-6.8220137871e-07
3.77646864442e-07
2.76948698322e-07
-9.46771062101e-07
4.1044300999e-07
-6.28078010075e-08
-4.02462257951e-07
9.46585179245e-08
-5.37595085758e-07
5.02722734441e-07
-7.89401010824e-07
5.57954301649e-07
-5.82336903169e-07
1.07890796221e-06
-1.71138022859e-06
8.87381767323e-07
6.14404062191e-07
-2.34507803879e-07
3.31622537169e-06
-5.22460422825e-08
-1.18209362121e-07
-1.87568751346e-07
-1.20437424143e-07
-2.03120562369e-07
-7.72472772325e-08
-5.11403074779e-07
3.07292937738e-07
-3.18363082333e-07
-4.22507097448e-07
-2.44138161684e-07
-3.18854407118e-07
-8.60820289837e-07
1.29844920112e-06
-3.82839683951e-07
-9.44079791717e-07
8.20454229259e-08
-8.62839074893e-07
4.93169406195e-07
-8.0165583301e-07
1.37357259687e-06
-8.62630383879e-07
8.89677563635e-07
3.28271546793e-06
4.54679245484e-06
-1.22635470309e-05
1.9808901249e-06
1.21692196543e-05
3.53242677001e-07
-2.01316271512e-06
-4.54989041941e-07
9.49804150796e-08
-1.23272743387e-06
1.35745592342e-06
-1.20876421795e-06
-7.22838649936e-08
-1.3167075449e-06
1.81496569576e-07
-1.45493799919e-06
8.76142739595e-07
-2.01171975227e-06
1.05947356233e-06
-1.2272639536e-07
-3.27987715662e-06
-5.66698929071e-07
6.86101968389e-07
1.60012906758e-07
-1.56673773704e-06
1.05544090602e-06
-5.08189985689e-07
3.78186697357e-07
-5.6581332469e-08
-7.4011132968e-07
3.68232381128e-08
-9.30889598639e-07
7.47416638714e-07
-1.33300913589e-06
2.23255565027e-06
-3.09792789145e-06
6.60115007719e-07
2.38749213088e-06
-3.32939350257e-07
4.21560240092e-06
-1.21848224772e-07
-2.73627857359e-07
-4.94364799675e-07
2.78685022188e-07
-1.47640491558e-07
-4.77235896855e-07
-4.38620244032e-07
5.63480371249e-07
-9.21051632383e-08
-7.40299868624e-07
-1.43892660316e-07
-2.41144177706e-07
-5.71760606357e-07
1.77971811762e-06
1.28335861656e-07
-1.46895550113e-06
5.53910604852e-07
-1.42113891432e-06
5.1858560295e-07
-6.99448519255e-07
-9.5703559884e-09
-4.64931925127e-07
4.36783258969e-07
3.08419709342e-06
9.16503053592e-07
-1.09541676855e-05
1.14547824548e-06
1.15263460324e-05
2.11459077909e-07
-1.32946651734e-06
-6.4522974524e-07
9.42658868254e-07
-1.46146152907e-06
2.3154427216e-06
-1.34405459996e-06
-4.96793871898e-08
-6.44313914231e-07
-6.26241232754e-07
-6.31714346411e-07
8.4975853396e-07
-9.56559734875e-07
1.40064809848e-06
-8.93999171175e-07
-2.72904352106e-06
7.53457849934e-08
-1.84212984223e-07
-2.29020393298e-07
-1.08210693603e-06
6.10092504562e-07
-6.1914305846e-07
9.092982805e-07
3.11868789539e-07
-1.56633489668e-06
2.61720630907e-07
-8.53557797239e-07
7.63846423969e-07
-1.62792200705e-06
2.68112482823e-06
-5.13345514476e-06
4.1601877833e-07
4.52709205521e-06
-5.16467994873e-07
5.28039535916e-06
6.25959448859e-08
-9.27993125702e-07
-4.72583729435e-07
-9.62383546824e-06
2.24241674743e-07
-1.37647511582e-06
-9.46396631076e-07
1.85756601292e-06
5.74324543279e-08
-1.95233296183e-06
-5.85540966911e-07
3.46456278182e-07
-1.5105066832e-06
3.08058499201e-06
-4.81066476804e-07
-2.31379484502e-06
1.4284572959e-08
-2.03818161323e-06
1.51850283936e-07
-8.27178008309e-07
4.47353952588e-07
-6.62847965378e-07
2.03827910171e-06
1.27256440099e-06
-4.40130670861e-07
-9.07125830906e-06
1.59857233128e-06
8.40787121849e-06
2.55961139081e-07
-1.61073308633e-06
-8.88206122141e-07
1.86126059795e-06
-8.93535109756e-07
2.16725946586e-06
-9.41503900308e-07
1.27258795286e-07
-1.00186903507e-06
-6.01407539739e-07
-1.97203793775e-06
1.71408622112e-06
-8.97929113705e-07
3.6084113123e-07
-3.96201867696e-06
9.30163934153e-07
1.04377170764e-06
-5.45161569641e-06
-5.7919198019e-07
6.63348684317e-07
2.23803401621e-07
-4.79077310453e-07
1.02451087935e-06
9.67483009584e-08
-2.26344222714e-06
-1.12729626625e-07
-6.44976722904e-07
3.39443963301e-07
-2.17409831261e-06
4.48424219199e-06
-9.94320117574e-06
-1.44107447965e-07
8.62244824713e-06
-3.97727775404e-07
5.72257453058e-06
-6.5962552403e-07
-6.44818762173e-07
5.35149966822e-07
-2.68210193638e-07
5.85726675487e-07
-1.24608200725e-06
-3.69866908022e-07
-2.89774210851e-06
1.20702174967e-06
1.52541225121e-06
3.61262078847e-07
1.11606928708e-06
-1.15934754066e-06
3.87273306894e-06
-8.44898075054e-09
-3.53071663773e-06
3.28242089879e-07
-2.26237187546e-06
7.13575448036e-07
-1.4859901876e-06
9.8526658882e-07
-8.80399201712e-07
2.25627675764e-06
3.20065561654e-07
-5.50985274708e-07
-7.4059266549e-06
1.54868192101e-06
6.64851866109e-06
1.51926491347e-06
3.38467395451e-07
-1.50081590095e-06
4.10802348513e-06
-1.26085798162e-06
1.97096171672e-06
-7.92146814006e-07
-4.26199703576e-07
1.08033583209e-07
-1.37941530614e-06
-1.97908981969e-06
3.66783920974e-06
4.65503322707e-08
-1.73458154131e-06
-2.31875739603e-06
3.77935964785e-06
1.52887181343e-06
-1.00771008539e-05
-3.12425772474e-08
2.53874189393e-06
5.51851620363e-07
-5.27855657077e-07
1.53769724071e-06
-5.89833304589e-07
-2.11602152701e-06
-6.40988710607e-07
-7.53202879998e-07
-6.4482625991e-07
-2.31732859917e-06
8.00308625347e-06
-1.78792524703e-05
-8.17920700506e-07
1.68796917535e-05
-7.49435929438e-07
4.66644288079e-06
-7.3478273311e-07
-4.85135346594e-07
2.85793996396e-07
-1.25866383609e-06
4.3789961203e-07
-1.1074596782e-06
-9.45991363304e-08
-2.30163719298e-06
1.10346191369e-06
2.22691923722e-07
-5.48519188866e-08
2.7388596294e-06
-3.44787668962e-06
6.42137619493e-06
1.19729565991e-07
-6.99849678859e-06
2.30347819929e-07
-1.98581006416e-06
3.5828707466e-07
-1.7305747955e-06
3.64388652405e-07
-1.01496271639e-06
1.25194257416e-06
-4.42026490348e-07
2.00793436897e-07
-5.45043876204e-06
2.27905659816e-06
4.58934573456e-06
2.28877539239e-06
1.52035412903e-07
-2.858254434e-06
9.26926622832e-06
-1.13438015878e-06
-1.88051960173e-07
-1.41730410621e-06
1.14686888938e-07
-9.23890370372e-07
-1.98185018231e-06
-1.55342427021e-06
3.51215484602e-06
2.15585269624e-07
-3.87818967387e-06
-3.07051441921e-06
6.28448575575e-06
1.60415434668e-06
5.53319332159e-05
-1.46306732706e-07
4.39603493016e-06
7.39149890954e-07
-2.02165218337e-07
1.50315725858e-06
-5.15777074299e-07
-1.88833278801e-06
-5.91988875596e-07
-6.74699254217e-07
-2.89895453088e-06
4.57651292336e-07
1.33473549877e-05
-3.17685422725e-05
-2.68952172994e-06
3.31930336727e-05
-1.04284516029e-06
2.73100028773e-06
-6.5620101794e-07
-8.99765662846e-07
-2.38343616651e-07
-2.03915831222e-06
-9.99319259472e-08
-1.21471660722e-06
1.10084109283e-07
-2.07733272885e-06
4.78787833451e-07
-7.60999907234e-08
4.87055667314e-08
3.15153694121e-06
-4.95266359975e-06
1.3114864466e-05
1.28112719909e-06
-1.34654843191e-05
4.64912885946e-07
-1.23097303159e-06
5.95486518125e-07
-1.35722494034e-06
3.25907365126e-07
-7.44372221248e-07
8.40976150876e-07
-9.82628646121e-07
5.40976917018e-07
-4.42789130635e-06
2.6616988196e-06
2.89832541078e-06
2.55691679552e-06
5.03458181169e-07
-2.59828689601e-06
1.66275814391e-05
-1.36004667624e-06
-1.05709408876e-06
-1.96475402571e-06
6.0342304298e-07
-1.33585369879e-06
-3.00793404892e-06
-1.35608240787e-06
3.91231488374e-06
2.04777727238e-07
-5.42645852149e-06
2.58084039458e-06
3.15382244359e-06
-2.59243230933e-06
-7.1231450305e-06
-7.46883980003e-07
1.89786840992e-06
3.68326691386e-07
-1.87424959257e-07
1.16911111599e-06
-1.29503798985e-06
-9.22282722615e-07
-1.35154920439e-06
-6.21659359133e-07
-4.6167096234e-06
4.0724237478e-06
2.09477692725e-05
3.10448304036e-05
-7.91399513116e-06
-3.27506961916e-05
-1.12773137681e-06
-4.02754263853e-06
-5.71278377315e-07
-1.59328796242e-06
-8.58646861733e-08
-2.36218511728e-06
-7.66152402399e-08
-1.25376924291e-06
5.59258170874e-07
-2.4953750169e-06
1.46240208976e-06
-1.10372394037e-06
1.25787122112e-06
3.13249289691e-06
-5.16241866272e-06
2.17442368254e-05
1.87622701102e-06
-1.86493792101e-05
1.42692420632e-06
-1.15937792804e-06
7.91075925146e-07
-8.33360338616e-07
3.77321364634e-07
-1.68814155975e-07
4.59689373497e-07
-1.00462679886e-06
1.08822433532e-07
-4.07211693935e-06
2.12899448627e-06
9.39662282376e-07
5.13794742799e-06
-2.42697562271e-06
-6.99526993364e-06
-2.23837090635e-05
5.8503918989e-08
3.9469130157e-05
-9.94242613411e-07
1.53672401932e-06
-5.74569659706e-07
-3.58612178772e-06
-4.18932010153e-07
3.90716942854e-06
2.79766211371e-07
-5.13636059208e-06
1.55963089154e-06
1.89231379653e-06
-1.12488869015e-06
-5.23963359221e-06
-7.7737610531e-07
1.32347186544e-06
-2.61167692009e-07
-1.6795770077e-07
1.51994057157e-06
-7.41625119963e-07
-3.09946679399e-07
-7.7039729293e-07
-6.35623348716e-07
-3.43042062562e-06
6.61007634053e-06
1.25096066249e-05
1.70444201112e-05
-3.64386849083e-06
-1.75732238803e-05
-1.41936132575e-06
-5.70373941719e-06
-7.461304904e-07
-2.28714598149e-06
-1.01000911682e-07
-2.63049756667e-06
-1.11260513756e-07
-1.3154330808e-06
1.05138001944e-07
-2.96151216435e-06
4.7684745092e-07
-1.29808490054e-06
3.97981716881e-06
-2.07904262649e-07
-1.44476394408e-05
-3.04206221157e-05
3.94094855335e-06
2.3707826173e-05
1.91873435819e-07
3.02684992352e-06
1.11184185943e-07
-8.96709583905e-07
-1.07305211356e-07
3.7484899493e-08
3.70605796896e-07
-1.42255927642e-06
6.13960678381e-07
-4.65963658837e-06
2.02713198125e-06
-2.46716042067e-07
3.66509693899e-06
-4.59029982542e-06
2.30897795697e-07
-1.71615624261e-05
-5.76957967099e-06
4.75433381738e-05
-2.66291811661e-06
-1.39111872684e-06
-1.13199430999e-06
-5.21231029373e-06
-8.27328613463e-07
3.16752268066e-06
-6.92700467694e-07
-4.96153575309e-06
7.21503991122e-07
4.08026645507e-07
-9.00641512796e-07
-4.32252512726e-06
-4.22100369686e-07
6.37373444292e-07
-8.39238731094e-07
-3.29702458501e-09
1.1810270868e-06
-1.22817790096e-06
1.04580790914e-06
-9.57810751343e-07
-1.12637182417e-06
-1.13856440178e-06
6.11199904832e-06
4.45219043543e-06
1.26792417083e-05
-2.126606555e-07
-9.9004492153e-06
-8.52184740521e-07
-5.53982225305e-06
-3.94665625228e-07
-2.55178989903e-06
-2.7252362571e-08
-2.81461127563e-06
-1.55019529294e-07
-1.3123500076e-06
3.59418892438e-07
-3.34507183895e-06
1.55478173516e-06
-2.30887249918e-06
2.74167671519e-06
-1.25864494622e-06
-1.00895895464e-05
-1.66861220162e-05
2.96100116203e-06
1.15107930875e-05
1.29998828715e-06
4.82188147244e-06
6.32139931618e-07
-1.31377071004e-07
7.3808528268e-07
-8.19922395699e-08
4.55725347889e-07
-1.01998392472e-06
8.84598253606e-07
-4.24701982215e-06
1.03542067191e-06
-3.96995034585e-07
2.84111111623e-06
-5.91993139809e-06
8.07834077216e-06
-2.20860227052e-05
-1.26392836949e-05
6.22276098357e-05
-3.2543372033e-06
-1.04911339437e-05
-1.69411587808e-06
-5.93368326274e-06
6.3990812322e-07
7.96791401871e-07
2.25346661245e-07
-4.34118240153e-06
7.04112108298e-07
6.38921479602e-09
-4.94578652728e-07
-2.88279519667e-06
-3.98714607091e-08
2.16053126773e-07
-2.57812476149e-07
1.17441384329e-07
7.54824794653e-07
-9.5693271757e-08
1.29371173264e-06
-1.574114081e-06
3.45419863296e-07
5.22650226113e-07
4.11041818181e-06
4.75658171159e-06
7.81362348895e-06
1.21928429289e-07
-4.61071998686e-06
-4.29067208184e-07
-5.52850524246e-06
-4.91559885723e-07
-2.29841206768e-06
-1.76539402818e-07
-3.03973311647e-06
-3.25551919954e-07
-1.33599686639e-06
1.55638776184e-07
-3.37972125979e-06
7.16118871649e-07
-2.97813460891e-06
3.9932138193e-07
-9.24092760998e-07
-4.21437773817e-06
-1.22803318913e-05
1.38531909146e-06
7.07022783283e-06
1.09126352964e-06
5.59873674317e-06
-6.48972649102e-07
-2.90678691481e-05
-2.59224657324e-07
-4.3290365931e-07
1.61257928874e-07
-1.30833238431e-06
4.35040790064e-07
-4.58147102967e-06
-2.91917070691e-07
3.93616610843e-07
1.79500934319e-06
-6.56512218741e-06
1.76339516571e-05
-3.5740887684e-05
-1.83169381261e-05
-0.000325690165481
-4.1466693972e-07
-2.9738422823e-05
-5.22289855036e-07
-6.55277956054e-06
8.13605328771e-07
-5.46546134222e-07
-1.4963892366e-06
-1.93013346118e-06
2.37193784641e-07
-1.87364604063e-06
-1.4074852729e-06
-9.32761334008e-07
5.72903925985e-07
-1.99868854399e-06
5.15586090328e-07
7.56977708527e-08
-9.7659568686e-07
1.60016183037e-06
-6.71944886595e-07
-5.0903056873e-06
6.58499151217e-06
3.73490591723e-06
-5.94236036746e-06
7.39489630275e-07
1.08306226692e-05
2.63836740035e-07
-4.77167058069e-06
-3.53506181056e-07
-4.42302724208e-06
-6.49376821685e-07
-2.05500312474e-06
-2.84803224651e-07
-3.76494739345e-06
-1.88390220892e-07
-1.35059506799e-06
1.28898608945e-07
-3.45872331534e-06
4.0122916945e-07
-3.05161368164e-06
-2.27032364274e-07
-3.19517221327e-07
-1.76744995741e-06
-9.08170340355e-06
1.0097464381e-06
4.19995390806e-06
-7.28060791537e-08
5.69651237451e-06
7.19481247072e-07
2.87705539235e-06
-1.80277281431e-07
5.20041752006e-07
8.05897243222e-07
-2.48329284734e-06
3.34274592263e-07
-4.68554212663e-06
8.32653962964e-07
-2.90045900661e-07
1.76951770616e-06
-8.08644795588e-06
-1.5704767769e-05
-2.02876899143e-05
1.16272300672e-05
7.20945664853e-05
-3.1948571103e-07
-1.98710539884e-05
-2.44120584043e-06
-5.3169124566e-06
1.23353256795e-06
-3.92020045021e-06
-1.74668304688e-06
1.08081590076e-06
-5.33826121559e-07
-3.0618667717e-06
-4.31351651187e-07
-1.05915174361e-06
2.36426526163e-07
-3.05187129143e-06
1.83474872744e-06
-2.1463663853e-07
-3.34022349378e-07
3.92681433384e-06
-4.66823916719e-06
-1.68033603915e-06
1.10425466991e-05
2.59159380761e-06
-1.02185233287e-05
-2.79664926646e-06
1.54059417104e-05
5.28868980761e-07
-7.63800975404e-06
-7.96513378857e-07
-2.59987919483e-06
1.61039332359e-08
-2.78658627436e-06
-2.6688351251e-07
-3.52533677767e-06
-1.68029114971e-07
9.80326721092e-07
-3.92374143527e-08
-3.33622175121e-06
3.74454557634e-08
-3.38779904263e-06
-5.0013287319e-07
2.55692930382e-07
-2.704219851e-06
-5.86425768977e-06
1.00315196174e-06
2.72226675285e-07
2.04166723359e-07
-6.6031033961e-06
4.01981411781e-07
2.73688752833e-06
1.44907832671e-06
-4.97061315993e-07
6.9246997257e-07
-1.83006909398e-06
4.36862964685e-07
-3.6487027345e-06
2.12312410156e-07
-3.36255290997e-08
-1.64107386827e-07
-7.76357445567e-06
-1.57539517682e-05
-4.11682051594e-06
1.52591501505e-05
4.08956990086e-05
9.07526273305e-07
-2.74840319047e-06
-5.63147291217e-07
-3.02579465611e-06
1.67989785343e-06
-6.44982584782e-06
-9.62554516923e-07
3.67684620088e-06
-4.45890195531e-07
-3.24620457959e-06
4.42765846243e-07
-1.67878580388e-06
-1.78556625435e-07
-1.75007281743e-06
1.71133306135e-06
-1.10998543129e-06
1.20983262891e-06
-6.57099664115e-06
1.74818120396e-06
-1.39016422402e-06
5.54938988496e-06
6.57431454238e-07
-1.28482836797e-05
3.2752447443e-06
1.19926751644e-05
1.53330842348e-06
-5.75374886634e-06
1.36531630941e-07
-1.32318854778e-06
-1.79806614682e-07
-2.44423744754e-06
-7.60680197176e-08
-3.21873664269e-06
-2.07098294195e-07
-1.25569463164e-06
1.12781691304e-07
-3.48788840293e-06
-6.28255985594e-08
-3.59298397634e-06
-4.59702058808e-07
6.61161538845e-07
-1.75150542508e-06
-4.68682004099e-06
-1.00460941275e-06
-5.10213798891e-07
2.20411905991e-06
3.7796743313e-06
-1.3842883599e-06
5.39762234096e-06
1.19444810204e-06
-2.92752678149e-06
5.60621978503e-07
-9.97448599743e-07
-3.53649949937e-07
-2.65641567371e-06
-8.08035618771e-07
3.99348041693e-07
-1.0519891584e-06
-6.47700719033e-06
-3.60213402179e-06
-2.40771285674e-06
4.32190770649e-06
3.63768430212e-05
3.3832068761e-07
5.70266008899e-07
-1.11627331443e-06
-1.22090661564e-06
1.81377221312e-06
-8.04856988959e-06
-7.2150314596e-07
5.77407985484e-06
-1.06683879931e-06
-3.37556455392e-06
7.03558985068e-08
-2.88779075558e-06
-1.00570966156e-06
-5.02224798289e-07
2.69790910018e-07
-1.99277663195e-07
1.40685897722e-06
-2.41876596683e-06
4.07107510037e-06
6.20157703235e-06
-1.79223428927e-06
-5.84741839708e-06
4.97301761865e-07
2.29997976802e-06
3.96641451267e-06
-1.20942128219e-07
-2.85666421003e-06
-1.28331930793e-07
-1.43613685531e-06
-1.08948716458e-07
-2.47580377513e-06
-2.20966814372e-07
-3.28229685173e-06
1.62650508918e-08
-1.24091779266e-06
-8.49301200963e-08
-3.20140690557e-06
9.86102758642e-08
-3.13428799771e-06
-1.52268543797e-07
8.94471669539e-07
-6.85067955711e-07
-4.18893397142e-06
-3.93317082605e-07
-8.28440011394e-07
2.94515923155e-06
4.66060235726e-08
-1.81270226114e-06
9.64766021017e-06
9.11360974571e-07
-6.03522106253e-06
2.0329523943e-06
-2.1808803592e-06
7.41906856901e-07
-1.61468227743e-06
4.89680635009e-07
6.25861966417e-07
-2.79830760578e-07
-5.7875953549e-06
-2.96776934416e-06
5.44907815835e-07
3.72315368476e-06
2.23190263605e-05
1.58441319909e-07
4.37415770397e-06
-1.08489909666e-06
1.67754172363e-07
4.06816603051e-08
-8.95655351491e-06
-4.42117242159e-07
5.8614811099e-06
-2.56644897623e-07
-3.3900253888e-06
-1.10345365269e-07
-2.91672419191e-06
-2.14790116897e-07
-5.4180256532e-07
-8.96234576845e-08
6.75671164845e-08
1.18265422625e-06
-1.41918214818e-06
5.01821434182e-06
4.95895222301e-06
-7.71367386964e-06
-5.04362869832e-06
1.15092015905e-05
8.55539342331e-07
-1.72386133409e-06
2.35724698373e-07
-1.93925014453e-06
-9.80910490581e-08
-9.47295948479e-07
-1.26310272144e-07
-2.5361787955e-06
-2.08256373047e-07
-2.8888919146e-06
1.93920211782e-08
-1.34789277225e-06
-3.65726279696e-07
-3.04232618882e-06
-8.43823459533e-08
-3.06677189792e-06
-2.3640056004e-07
9.87987423688e-07
-5.47134625557e-07
-3.23286686888e-06
-4.89618412674e-07
-8.51428911743e-07
5.10797420872e-08
-4.88982090134e-07
-6.19524909557e-07
1.16217024234e-05
2.10973759112e-07
-6.13500006596e-06
4.33886851767e-07
-2.67579816423e-06
1.58858797041e-07
-1.34465301327e-06
-2.5174561424e-07
1.06498523213e-06
-9.54125400099e-07
-4.77906117186e-06
-3.17151957111e-06
3.14150549577e-06
3.32752720369e-06
1.48876521007e-05
1.28081234599e-07
7.59187175604e-06
-4.96944550073e-08
3.25786775063e-07
1.65907111334e-07
-1.00910691686e-05
-1.77605402061e-07
6.6617136422e-06
-2.04460977268e-07
-2.76692733947e-06
-6.46851587442e-08
-2.91493699024e-06
-1.09456278937e-07
-5.23993132852e-07
-1.20524012014e-07
1.78539814442e-07
9.61592552142e-07
-3.21021595484e-06
9.25574022311e-06
5.45456745643e-06
1.86255920368e-05
-2.68149169505e-06
-2.04212419105e-05
-2.00438116723e-07
-3.82627166711e-06
2.77980974586e-07
2.40770141243e-07
-8.83042123415e-08
-3.07034717942e-06
-2.29285569317e-07
-2.22656412172e-06
-1.28468178637e-07
-2.89798313638e-06
4.21909363408e-08
-1.51673834404e-06
-1.34858674117e-07
-3.2886308827e-06
-4.73333045038e-08
-3.24503372194e-06
7.48568653732e-08
7.85428053392e-07
-2.19673093292e-07
-2.75055899576e-06
1.88277540206e-07
-1.24571308944e-06
-8.12277132988e-08
-3.03860370852e-07
8.13379439039e-07
1.13515326937e-05
3.87902516013e-08
-5.0124223641e-06
5.83003609208e-07
-2.6522391967e-06
5.67422902249e-07
-1.12432783402e-06
-4.18090242757e-07
1.94923239077e-06
-7.70041806264e-07
-4.45099548211e-06
-1.65963170536e-06
4.22095353605e-06
3.39231475758e-06
1.05291641947e-05
-3.83345245315e-07
-2.83424308813e-05
-1.93538221913e-07
1.09539012865e-07
6.03529451927e-08
-9.43483990034e-06
1.76239006995e-07
7.8846876124e-06
1.34666350761e-07
-2.53715080376e-06
-1.17924760392e-07
-2.60360940165e-06
-3.08564152015e-07
-2.58957250329e-07
-2.86419771914e-07
2.19748091016e-06
-1.42512059555e-06
-1.92248961877e-06
-3.63641447314e-05
3.72810270318e-06
1.13263566129e-05
-2.13248241625e-06
-1.25470848121e-05
-3.03603235221e-07
-5.29974661257e-06
1.84051145417e-07
-2.61861084743e-07
-3.04510851992e-08
-2.91156876125e-06
-9.02652087688e-09
-2.01762631821e-06
-5.23160252146e-08
-2.99589469507e-06
-9.88066222463e-09
-1.57041303925e-06
2.4323304092e-08
-2.93869179527e-06
-7.81591236755e-08
-3.21468912135e-06
1.76467792498e-07
5.15439807702e-07
-2.14284013559e-07
-2.69584662644e-06
1.5547779936e-07
-1.3576515098e-06
2.53500841692e-07
-3.17637971455e-07
-1.36131825665e-07
9.43828705672e-06
-2.90744284616e-07
-5.17796883927e-06
1.08043936078e-06
-4.18935140584e-06
8.12133527666e-07
-6.7108633602e-07
-4.02042905237e-07
3.1023768826e-06
-6.66019826618e-07
-1.27353746724e-05
-1.26793231557e-06
4.52531418614e-06
6.37070850681e-07
9.89754921269e-06
1.86792011294e-06
1.02188019694e-05
2.5066613384e-07
1.76218850115e-06
4.45988477738e-07
-9.27943944468e-06
-6.23472691699e-08
6.45362831173e-06
2.09003024769e-07
-2.63067606108e-06
-8.63704896831e-08
-1.99690048822e-06
-8.33775361236e-08
-3.02557893827e-07
2.50514055353e-08
-5.81078860454e-07
-1.28506579309e-06
5.99726638803e-07
1.1654405847e-05
3.69269936906e-06
7.9786506906e-06
-7.93869778455e-07
-7.08645981953e-06
-3.45799525977e-07
-5.48833635448e-06
1.91088381729e-07
-7.2732665254e-07
-1.09940061906e-07
-2.61233667213e-06
-7.86811311786e-08
-2.01816827754e-06
-5.18184878217e-08
-3.01290772401e-06
-4.26748486233e-08
-1.54726144683e-06
-9.42518948769e-08
-2.90888828511e-06
-5.509637642e-08
-2.83344988209e-06
8.55961206782e-08
3.37800678528e-07
-1.01024752864e-08
-2.55401916195e-06
2.23227729356e-07
-1.57703017257e-06
1.02667572108e-06
-1.00952355252e-06
-1.18901395708e-06
1.11907528669e-05
7.5088324941e-08
-6.0574732889e-06
3.74325606564e-07
-4.26526162768e-06
8.08497757512e-07
-1.11852311117e-06
-1.10864747022e-06
-2.01904854968e-05
-2.53937292424e-07
-4.46726227718e-06
-4.91488025002e-07
4.13149724295e-06
2.50206838974e-07
8.14519083551e-06
5.40350312257e-07
8.06916205718e-06
1.27418536003e-07
2.08619602745e-06
1.25715126383e-07
-9.22714901844e-06
-9.9302618416e-08
5.83941077114e-06
1.64983825259e-08
-2.94148935767e-06
-2.49819509067e-07
-1.5347528782e-06
5.9228142678e-09
-5.49784192836e-07
5.05655467706e-07
2.10994231987e-07
-2.55538944439e-06
-2.14861745795e-07
1.12254762147e-05
1.94166208548e-06
6.02199821245e-06
-2.68004585615e-07
-4.01081498178e-06
-4.59647853808e-07
-4.94139530227e-06
1.06308667272e-07
-1.18991758586e-06
-4.79735975542e-08
-2.32618795779e-06
-3.37886315052e-08
-1.81852393806e-06
-2.89040576379e-09
-2.65289145738e-06
-5.648901847e-09
-1.3804302614e-06
-4.51822009255e-08
-2.54588376432e-06
-6.29031637608e-08
-2.51893343277e-06
-2.58348170541e-08
2.55071557064e-07
2.65759032997e-08
-2.21718661501e-06
-6.20327770926e-09
-1.58452406115e-06
8.51146409171e-07
-1.68948548692e-06
-1.43586461415e-06
7.13532263311e-06
4.92843485483e-07
-7.21362873125e-06
4.21472105968e-07
-3.41628057627e-06
-4.69427198557e-07
-2.72405098863e-07
3.84239687574e-07
3.92779388924e-06
-4.6878732183e-07
-3.66655141828e-06
-7.88086480104e-07
3.85585190522e-06
2.30671232206e-08
5.95552254974e-06
7.09919770903e-07
6.60043579515e-06
2.36669268465e-08
2.4500780222e-06
5.51851808294e-08
-8.36848222045e-06
1.01656339552e-07
5.74206404922e-06
1.61373983762e-07
-2.81075515826e-06
-1.99952606714e-07
-1.19097739894e-06
6.5911971186e-08
-6.91555584612e-07
1.99297458746e-06
6.98322783195e-07
-3.90676457492e-06
-6.91937489739e-07
1.0396445664e-05
1.41451120488e-06
3.48087291441e-06
2.42061190117e-08
-2.08907965829e-06
-3.08419172252e-07
-4.38205895414e-06
1.71806015028e-07
-1.45375868653e-06
6.63950000898e-08
-1.82074198634e-06
9.10976677119e-08
-1.66210087228e-06
1.28863915879e-07
-2.14834514002e-06
8.73028740689e-08
-1.15348261133e-06
1.07048336231e-07
-2.1533444086e-06
-7.68475517814e-09
-2.28868094207e-06
-7.56047509998e-08
3.3533974663e-07
-4.34650293107e-08
-1.96817373368e-06
1.83092503979e-07
-1.65529068935e-06
1.71165239518e-06
-6.48949651571e-06
-2.75426613657e-06
-1.31344188155e-05
2.31613673107e-06
1.79586183472e-05
9.02556229676e-07
-2.00615177636e-06
4.77561043217e-08
5.60204441765e-07
5.8806316153e-07
3.08562114917e-06
-1.24317833165e-07
-2.62233588993e-06
1.19615190872e-07
3.68027168461e-06
7.77414730984e-08
5.7882825295e-06
5.52740640956e-07
5.90407637537e-06
1.51244380259e-07
2.54485637311e-06
-3.32827774281e-08
-6.96669039273e-06
-2.57073869647e-08
4.94209781187e-06
1.0349104467e-07
-2.592261078e-06
-3.97686832195e-07
-6.93427410995e-07
2.16931661917e-07
-1.08339128585e-06
2.31093580939e-06
1.00426967551e-06
-2.88361071299e-06
6.41276011271e-07
8.33540175137e-06
1.18436807082e-06
2.62692417271e-06
3.28943154226e-07
-8.85210331403e-07
-5.36953689587e-07
-1.47068774087e-05
-1.8975838957e-07
-1.57815475105e-06
-1.56840680017e-07
-1.62071579634e-06
-1.25891165522e-07
-1.42909525316e-06
-1.95371671182e-07
-1.92529766657e-06
-1.10394736994e-07
-1.08210823117e-06
-6.29963482495e-08
-1.99120433576e-06
-7.70276793242e-08
-2.09011779285e-06
-5.79051047642e-08
2.59384275242e-07
-1.15289503655e-08
-1.78150980244e-06
5.32212563811e-07
-1.80644759538e-06
1.46422972366e-07
-5.44501494573e-06
-1.86077415842e-06
-8.31976763863e-06
8.26485190835e-07
1.34211672854e-05
1.82385879177e-07
-1.18634056349e-06
-3.66841073141e-07
1.0072825855e-06
6.51736871782e-07
1.7255308412e-06
-8.88235050286e-08
-1.52697556813e-06
3.08664714341e-07
2.99448125677e-06
2.8118354958e-07
5.20897768429e-06
1.2346064555e-06
4.22807003901e-06
1.06045338851e-06
2.46339712773e-06
6.67382230121e-07
-5.89392916811e-06
1.09834410952e-06
3.92044589292e-06
1.12692381821e-06
-2.12875658839e-06
5.55830978189e-07
-1.39339804593e-07
2.27796792433e-06
-2.66671394669e-06
3.0598483702e-06
3.96520958649e-06
-2.9129120239e-06
3.88759997732e-06
6.71747909287e-06
3.9798061748e-06
2.02656951888e-06
2.64885133391e-06
5.19095018583e-07
1.51202645452e-06
-9.67074235919e-07
1.99736523848e-07
-7.45798721116e-07
-5.64687685582e-08
-3.84921459286e-07
-7.80822330817e-09
-1.18441256381e-06
9.20905143191e-08
-1.75456666944e-06
2.43578947271e-07
-9.42455558386e-07
2.62703139615e-07
-1.54895255458e-06
1.76362567958e-07
-1.55354343162e-06
-1.08748797587e-07
4.40516213405e-07
-2.70478500876e-08
-1.50918847521e-06
2.63124829146e-07
-1.68227395884e-06
-8.13672580463e-07
-3.37051922248e-06
-1.99610575203e-06
-5.55565432306e-06
3.16806517267e-07
9.63076667202e-06
2.73615364159e-07
-8.8500306937e-07
-9.59279183223e-08
1.22136908973e-06
3.82955885307e-07
9.24020891489e-07
-8.67742046603e-09
-1.07411022646e-06
5.68087858681e-07
1.98684445543e-06
5.5838808725e-07
4.58102337683e-06
1.27366306913e-06
3.15314677825e-06
1.40512464146e-06
2.08522841614e-06
1.09623032142e-06
-4.82307725605e-06
3.45369363272e-06
8.39393032145e-07
3.43361431662e-06
-1.96501647809e-06
3.63249565163e-07
2.80486056191e-06
3.16668848711e-06
-4.73208355838e-06
2.26940402935e-06
3.47102308941e-06
9.67449445169e-07
4.80425759514e-06
4.66182305255e-06
5.03774843707e-06
1.56639494017e-06
3.39117503305e-06
2.18774141557e-06
2.20991171553e-06
3.30251128998e-07
1.14116548955e-06
3.8842905142e-07
2.68042383742e-07
5.44135977727e-07
5.39197715226e-08
-8.04934245165e-07
-8.80861973327e-07
-5.18921194183e-07
-1.68894792091e-06
8.82114893024e-08
-2.6917592401e-06
-3.73628408032e-07
-2.27246522144e-06
-1.79178973618e-06
-2.63772525244e-06
9.41587319115e-07
-2.30642233662e-06
-9.45457096218e-07
-2.09197626584e-06
-1.66226548562e-06
-2.69437914266e-06
-2.35838665598e-06
-3.7488304454e-06
-3.92816251718e-06
-1.68319902927e-06
5.86955358747e-06
-1.31800589326e-06
-1.08347082233e-06
-1.6074994715e-06
3.92664483252e-07
-9.0554793447e-07
9.85170882744e-08
-5.50784704742e-07
-1.22265267889e-06
-5.5582463538e-07
1.62321016269e-06
-2.37412085288e-07
3.57984076875e-06
2.86899882264e-07
2.18530658149e-06
8.87627706367e-07
1.1877728441e-06
4.90785810127e-07
-3.7171454836e-06
1.65725013015e-06
-3.24081652168e-07
1.49266042335e-06
-1.61437957686e-06
-1.23391776133e-06
-1.05350305927e-05
7.84649707354e-06
1.86839634729e-06
2.81054658028e-06
2.35671420516e-06
2.52315651043e-06
3.37116544138e-06
3.58348975073e-06
4.17931213363e-06
7.4244093652e-07
3.93175260391e-06
2.40782539931e-06
3.2384813763e-06
1.01146731799e-06
2.7218008384e-06
8.96233111353e-07
2.38613821623e-06
8.63950238417e-07
1.00282327951e-06
6.24172996769e-07
-1.10678921734e-06
1.64274023313e-06
-3.17776721362e-06
2.15854141648e-06
-5.27282729668e-06
1.72934996544e-06
-4.92119049778e-06
-2.09892812917e-06
-3.18679384487e-06
-1.1657364589e-06
-2.81308114206e-06
-1.84408372192e-06
-3.11167171208e-06
-8.04451514626e-07
-7.26935424338e-06
1.54792258953e-06
-6.37420574367e-06
-4.56753859442e-06
-6.89064579636e-07
-4.80996480102e-08
-9.67017656785e-07
-7.10074392921e-07
-9.83415533026e-07
1.1329686079e-06
-5.35666149192e-07
-3.59273916141e-07
3.43931697208e-07
-1.93711269694e-06
-4.57532098463e-07
2.17660410529e-06
4.79893492292e-08
2.5504871829e-06
5.93826097389e-07
1.36770991967e-06
1.24869507707e-06
4.02710797592e-07
2.69775956906e-07
-2.38968134161e-06
2.70856174938e-06
-2.74700246371e-06
2.42059915104e-06
-1.15193775426e-06
-7.6029647312e-07
-6.72679799046e-06
3.37956753757e-06
-2.30951444635e-06
2.22843475484e-06
1.69536673926e-06
1.79332938509e-06