/*--------------------------------*- C++ -*----------------------------------*\
| =========                 |                                                 |
| \\      /  F ield         | OpenFOAM: The Open Source CFD Toolbox           |
|  \\    /   O peration     | Version:  v2012                                 |
|   \\  /    A nd           | Website:  www.openfoam.com                      |
|    \\/     M anipulation  |                                                 |
\*---------------------------------------------------------------------------*/
FoamFile
{
    version     2.0;
    format      ascii;
    class       volVectorField;
    location    "5";
    object      U.air;
}
// * * * * * * * * * * * * * * * * * * * * * * * * * * * * * * * * * * * * * //

dimensions      [0 1 -1 0 0 0 0];


internalField   nonuniform List<vector> 
4480
(
(-0.00215071804839 -9.04538989732e-05 0.000447961964157)
(-0.000822913248095 -0.000557118399593 -0.00036847150334)
(0.00149043188701 4.41405249911e-05 -0.000382693613878)
(0.00329843753698 1.96937663063e-05 -0.000872858305239)
(0.00859746303413 0.000140532336944 -0.00212631201166)
(0.0141144308437 -0.000637358812395 0.000780762353308)
(0.00179944130201 2.27212264789e-05 0.00158019962392)
(-0.00287419517401 9.98720172263e-05 0.00011833358862)
(-0.00158499344268 -0.000209227783228 -0.000239635648288)
(-0.000364439114319 0.000159984415268 -9.91180487261e-05)
(0.00015673724144 -3.31470606373e-05 -2.7368472085e-05)
(0.00065641824716 -9.16976725954e-05 -0.000132985452168)
(0.00241051627038 -6.82163580007e-05 -0.000247492791471)
(0.0001479789007 0.00066824434512 0.00108525763669)
(6.33371131477e-06 0.000162067508949 -0.000598267590829)
(0.00346477419979 0.000534540325702 -0.00025105772048)
(0.00519681032249 0.000109388523509 -0.000471725643017)
(0.0061885874184 0.000287881296489 0.000160187290051)
(-0.00267146834101 1.11035496082e-05 0.00178729305228)
(0.00129038416704 9.3925803175e-05 -0.0140699249921)
(0.0115883466504 0.000118829964724 0.0120212299197)
(-0.0146625695293 -0.000124702305911 -0.00496870358849)
(-0.00170218909347 -0.000443221922343 -0.00122606915062)
(-0.00153053668959 7.45517850711e-05 0.00067241356784)
(-0.0032311608068 -0.000155545733145 -0.00016900183964)
(-0.00206951683419 -8.05111058618e-05 -5.27079616812e-05)
(-0.00261426157774 -0.00011762177417 0.000437927068002)
(-0.0123103145138 -7.05075352215e-07 0.000794142980282)
(-0.00293981830406 1.92913695597e-05 -0.00118321246722)
(-0.0027137365471 7.41995981959e-05 0.000276865834865)
(-0.00113728964997 -0.000369086609787 -0.00105287162173)
(0.000600521491177 -0.00050420173855 0.000412544853295)
(-0.00159366660725 0.000125514553708 -0.000271868808229)
(-7.04196811432e-05 0.000277526840345 -0.00132932395155)
(0.0027536526957 -0.000230573373513 -0.00200063270718)
(0.0023723387687 -0.000405388429628 -0.00154539210125)
(0.00386808435721 9.5059484268e-05 -0.002335731813)
(0.00657629120571 -9.40637530412e-05 0.00132534383173)
(0.00197794291798 6.76766601149e-05 0.00970767768525)
(-0.000448833640206 -9.48640409749e-05 -5.60326884261e-05)
(-0.000885020932116 0.000240787515601 -0.0006431588279)
(-0.000934534061463 0.000170297450631 -0.000312321386338)
(-0.00257567406472 -1.77051070433e-05 0.000504335764767)
(-0.00245437978938 0.000121970099457 -0.000942249654212)
(-0.00162440903163 0.000128858909728 -0.000651577067517)
(-0.0023827405959 0.000148845892954 0.00201997447273)
(-0.00412370637956 4.10527818353e-05 -0.0022012139493)
(-0.00116819742081 0.000177522332216 -0.0023565220764)
(0.00102753291785 9.98742443626e-05 -0.00137670772785)
(0.00629658167032 0.000148287710036 -0.0011527302832)
(0.0079948576374 5.10932898123e-05 0.0106394419334)
(0.00839157253079 9.53491159483e-05 -0.0190395861377)
(0.0257405044507 2.48610613728e-05 0.0316309540647)
(0.00785416189225 0.000188178391962 -0.00711597625617)
(-0.000953525802573 -1.32980861416e-06 -0.000271064605466)
(-0.00324792041304 -0.000210864996429 0.00190491503005)
(-0.0096326326735 -4.21585225479e-05 -0.00034936962727)
(-0.00561935241423 -3.67983028741e-05 8.5651410055e-05)
(-0.0112831026161 0.00010252375561 0.00319060634129)
(-0.00794649245545 -8.17977060748e-05 0.00217620816079)
(-0.0073062038348 0.000196018023868 -0.00736538102946)
(-0.0027747931313 -2.93485911572e-05 0.00158535979512)
(-0.000613003418427 1.8242788981e-05 -0.00247262520748)
(-0.00219964291287 8.04075442784e-05 0.00163847129963)
(-0.00127870336669 -0.000304617786488 -0.000241945894329)
(-0.00156337794831 -0.000114746209593 -0.000842704347558)
(-8.97229623511e-05 -0.00019347676955 -0.0018336343273)
(0.00158223526935 0.00010712321959 -0.00230124895652)
(0.0115151461393 -0.000178460397591 -0.00816177927415)
(0.00815231650048 -0.000490792255571 0.00354835860429)
(0.000651988769556 0.000101461796699 0.00580182691284)
(-0.00148594407056 -0.000193946603114 -0.000514848279747)
(-0.00204285898451 0.000116255478641 0.000275466367603)
(-0.00224006820378 -1.45135602155e-05 -0.000837007326569)
(-0.00114080832439 0.000109956608648 0.000495012823637)
(-0.00218152076119 -9.81104989999e-05 -0.00135011930222)
(-0.000567648291143 0.000253367018878 -0.000529473556019)
(-0.00260549568474 0.000200413019961 0.00516686170468)
(-0.0010221556541 0.000164465343909 -0.00197591182039)
(0.00139527425901 0.000375855003983 -0.00159343467648)
(0.00443564718991 8.14229019945e-05 -0.00203835871756)
(0.00114221758167 3.25100770085e-05 -0.00125936535294)
(0.00123920734577 1.26653001419e-05 0.00628541914062)
(0.00483738574034 0.000256419904084 -0.0332610934144)
(0.00616525776518 -0.00011710060112 0.0176095737577)
(0.00374844244121 -7.77856756147e-05 -0.00258087560405)
(-0.00135580054924 -0.000213433111648 0.00143067916172)
(-0.00451713098313 9.44767079117e-05 0.00511366532186)
(-0.0107770226079 -0.000243892186733 -0.000215832168847)
(-0.00664970065387 -8.86647721374e-05 -0.000496410632013)
(-0.00382883009593 -7.69380892303e-05 0.00159800559626)
(-0.00353389644504 -0.000130053008981 0.00231340043882)
(-0.00596489801158 0.000128451825526 -0.0053241706361)
(-0.00321983397829 0.000142743694617 0.000653941850812)
(-0.000434653821059 -0.000159811629215 -0.00436391147867)
(0.000404930714872 0.000130572322206 0.00290479183185)
(-0.0019024356034 0.000136505150873 0.00174725545964)
(-0.00149504222904 -6.40558432938e-05 -0.0043679381618)
(0.00168935220138 0.000220619409922 -0.00267828337682)
(0.00313212066359 -5.84901929001e-05 -0.00362689217757)
(0.00990805029696 -0.000177816037341 -0.00836338569436)
(0.0111147064906 -9.23135657824e-05 0.00962001812291)
(-0.000544304885272 -0.000362377145182 0.0170464436844)
(-0.00121954293476 0.000243054309454 -0.00174384522755)
(-0.00124393012742 -7.09913778164e-05 -0.00969484945035)
(-0.00105873365543 -0.00013743326115 -0.00285248955303)
(-0.00277751512961 0.000210763571643 0.00484429016376)
(-0.00223728743263 6.53604948018e-05 -0.00419033327833)
(-0.00267956107305 0.000200661828438 2.31642789561e-05)
(-0.002853994422 0.000171714186972 0.00486021667889)
(-0.00981676201926 4.60324938242e-05 -0.00686093017532)
(-0.00104708945683 7.19421982461e-06 -0.00614349833168)
(0.000757475935143 3.82473638649e-05 -0.00223519158909)
(0.00121933171245 4.16313669995e-05 -0.00105962393907)
(0.00859019139839 4.47256916237e-05 0.00619116725192)
(0.00533217948882 -0.000180013362821 -0.0315429419716)
(0.0051709476287 -2.54248262832e-05 0.034093805449)
(0.0042690049025 -0.000104909745159 -0.00443849437569)
(-0.00211967169529 5.36224756556e-05 0.00285070980682)
(-0.00594281683344 3.85557113684e-06 0.00533962166868)
(-0.00434056908162 -0.000155528621829 8.01133253064e-05)
(-0.00816312281288 -0.000171799609345 -0.00198932283126)
(-0.0100984079404 6.6677664599e-05 0.00394688631429)
(-0.00646149409964 -0.000177641114976 0.00275956130339)
(-0.0202029007306 -1.88591984397e-05 -0.00348583867508)
(-0.00547700882262 2.61702448751e-06 -0.00738405929941)
(-8.02658457598e-05 -0.000114464229257 9.43587693976e-05)
(-0.00150330541628 2.63053804325e-05 0.000532313389496)
(-0.00272255250468 -0.000138760948039 0.00253133083782)
(-0.00127596658464 0.000126886529898 -0.00390290951506)
(-6.54350368607e-05 -0.00022942107469 -0.00156902093605)
(0.000734700110121 -0.00010872490871 -0.00601318201775)
(0.018091566198 -0.000131026343647 -0.0237037226911)
(0.0123758370363 0.000164564018615 0.0132946930775)
(-0.00149244336691 -0.000105268359664 0.00892031667191)
(-0.0028552038735 -0.000130511099615 -0.00186544552386)
(-0.000468379128194 -8.6136666217e-05 -0.014839080862)
(0.002941923881 0.000129965271655 -0.00207459971953)
(0.000912520994043 8.30298540739e-05 -0.00233115599875)
(0.0013956382988 6.44111364673e-05 -0.000664630318995)
(0.00690531939098 0.000208616968421 0.00179255940635)
(-0.0025688289305 0.000253563248528 0.00732953937849)
(-0.00444618895738 0.000110633668387 -0.00582186021304)
(0.000643690166599 9.2180785894e-05 -0.00308814023041)
(0.00367603518698 7.16654223831e-05 -0.0033792024422)
(0.00611833292414 4.9934695957e-05 -0.00244968453765)
(0.0137844878081 -9.55395451733e-05 0.00204128410011)
(0.00333605569899 0.000121693660255 -0.0161256879942)
(0.00418271690881 -1.24173784248e-05 0.015413935989)
(0.00666903531229 0.000234358858117 -0.00129774991223)
(0.00122920771479 -0.000244695320331 0.00705394173506)
(-0.00770492093025 -0.000238813651623 0.006388658254)
(-0.00880377254387 -3.1552033431e-05 -0.000379666553496)
(-0.00115352059962 -0.000221128614589 -0.000972989279447)
(-0.00592345610296 -3.59651762587e-05 0.00540416447275)
(-0.00667925994493 -0.000206825780157 -0.00234187346141)
(-0.00419508057841 2.86359494363e-05 0.00483235293604)
(-0.00335318912719 1.66421624391e-05 -0.0247848468997)
(0.00234680255501 -8.69030961863e-05 0.00343065792632)
(-0.00133536042436 -3.16375044079e-05 0.00125650609677)
(-0.00269733052833 -0.000203070133097 0.00414133138428)
(-0.0044270369301 0.000490569433763 -0.0056366119714)
(-0.00451008132259 -0.000283892184585 -0.00229815826039)
(-0.00392246888069 -4.16071132188e-05 -0.00442096459601)
(0.0149471472818 -8.43497523782e-05 -0.0234030851873)
(0.0347878024276 -0.000209111022151 0.0420447197388)
(-0.00533565804341 -6.83953655326e-05 0.0150376731234)
(-0.00304694609025 0.000129563871788 -0.00129380818451)
(-0.0028367902169 8.55934417748e-05 -0.00267557955997)
(0.00287875347219 5.97819722747e-05 -0.00366326046995)
(0.000781410185391 0.000189824534172 -0.00722084762353)
(0.00356611777142 0.000372549560436 0.00311274545389)
(0.00345206782839 9.06049364212e-05 0.00688665992652)
(-0.0146105952601 0.000158934108264 0.0150850352017)
(-0.00914294973903 4.48859531588e-05 -0.013421593264)
(0.00153868406328 0.000176716663652 -0.00668114347248)
(0.00141557571278 0.000255455959799 -0.00334563706047)
(0.00272524836331 6.08843710245e-05 -0.00227002438577)
(0.00746987468683 5.38469067157e-05 -0.000237790185747)
(0.00290230928182 0.000208246997851 -0.0148064251581)
(0.0132134173832 -0.000122120383772 0.0164808334968)
(0.00681827533949 0.000215308917669 0.000566916222625)
(-0.00308315583197 0.000198934203193 0.0232335969561)
(-0.00660079406787 -0.000437172684449 0.0016117066628)
(-0.00865011250893 -0.000151134311306 -0.000374263733746)
(-0.010790977224 -0.000293083726722 -0.00720629572834)
(-0.00971486198165 9.34401473182e-05 0.00983602787148)
(-0.00266782591168 0.00014064582061 -0.00641050247805)
(-0.0102595557271 -0.000390344734976 0.0115251829354)
(-0.00423727018405 -0.000170779803053 0.0279553678944)
(0.00483663690616 0.000146884812284 0.0101280819109)
(-0.00140012529707 7.65871272475e-05 0.00156742428362)
(-0.00129340534298 -4.80847720595e-05 0.0024812126304)
(-0.00405866414184 -3.17079557721e-05 -0.00555224732878)
(-0.00212853083942 -0.000112992718981 -0.0009782954957)
(-0.0111454314559 -6.01449048022e-06 -0.00283252291627)
(0.0500253787932 0.000233526706741 -0.0785336124811)
(0.0250144821102 -4.92732088039e-06 0.0490805678764)
(-0.015294047176 7.04444067947e-05 0.0100063713751)
(-0.00541101251286 0.000100164658965 -0.0018949143458)
(-0.00315656292863 0.000112794614983 -0.00449596051333)
(-0.00158708890549 6.96983709106e-05 -0.00283048825083)
(0.000189653210286 0.000131056610297 -0.00400760174828)
(0.00237625351076 0.000334129370211 9.23980186473e-05)
(0.00159263541085 -0.000206855289629 0.00369974055535)
(-0.0204836253563 0.000106663408581 0.0335723927496)
(-0.0105907648401 0.000323629649175 -0.0272721248923)
(0.0070854114737 9.66966360311e-05 -0.00473473192447)
(0.00287524169103 -6.56783005842e-06 -0.00299371911834)
(0.00383975179689 0.000247528581874 -0.00225259660859)
(0.0039879233624 6.16496476509e-05 -0.00172025491614)
(0.00452863273251 0.000148364855361 -0.0136701888606)
(0.0153846494505 9.02902332281e-05 0.0102578794028)
(0.0148402909575 -7.66589691821e-05 0.00075438654195)
(-0.00127426368395 -0.000204450513734 0.0312069579409)
(-0.0099159349071 -1.99075612805e-05 -0.000962546740465)
(-0.0191317711941 0.000101437369409 0.00114743309323)
(-0.00500068961268 0.000143060840757 -0.00289722367318)
(-0.0140784928252 -0.000147587023217 0.0118468248606)
(-0.00239945016459 -2.67553610934e-05 -0.0112200000692)
(0.00816094121533 -3.64839987106e-05 0.0139978247172)
(-0.00368939549505 9.90135674504e-06 0.0933377502875)
(-0.00552214298975 -9.19281515027e-05 0.00679272560931)
(-0.00502678251987 -8.90159355748e-05 0.00128930084822)
(-0.000875805464699 0.000251661657414 0.00325495157972)
(-0.00562498206308 -0.000153571988705 -0.003995046292)
(-0.011800152944 2.33561614484e-05 -0.00204437971003)
(-0.0163720022048 1.47275463737e-05 0.00624415308179)
(0.0534947254608 -3.75995679494e-05 -0.00447856636331)
(0.0501883763878 -1.94433469722e-05 -0.00742043567211)
(-0.0325880216648 0.000308000948652 -0.000484249090325)
(-0.0062268842774 -0.000274705774149 -0.00314623108871)
(-0.00165719500332 -0.000325918244463 -0.00342863784426)
(-0.00083595769427 0.000253692507446 -0.00363514899377)
(0.00195196516985 3.14268216668e-06 -0.00761559178332)
(0.00752218629375 8.71026081816e-05 -0.00222568246698)
(0.0119217754752 0.000403903525293 0.0104514852411)
(-0.0101290138369 0.000150936944561 0.0308692993926)
(-0.0169788023825 0.000236318610151 -0.0348776438548)
(0.00742769176718 0.000293949108751 -0.0025620109552)
(0.0129685594975 0.000301840741687 -0.00477301357714)
(0.00310873164421 8.49064107488e-05 -0.00122353656985)
(0.00265247434008 -2.13581930726e-05 -0.00225377079127)
(0.00248653243665 0.000123174316225 -0.0122427058656)
(0.00784944941902 5.49294916923e-05 0.00366428116881)
(0.0322664816012 5.77108935009e-05 -0.00355302931136)
(-0.000343101513362 -0.000379915669604 0.00111329249296)
(-0.0371645288727 -0.000211338044179 0.069705254544)
(-0.00350610885114 -0.000178131005557 0.00194480741615)
(-0.00663693471844 -8.43481694332e-05 -0.0119201201808)
(-0.00282209980333 -0.000189615941697 0.00663636252447)
(-0.0010237002513 0.000181342157116 -0.0122748789159)
(0.00711377260021 -2.67051769679e-05 0.00673024940859)
(0.000364997692656 4.52685641946e-06 -0.0134240611569)
(-0.00497187503142 3.33998875241e-05 0.00426479388691)
(-0.0041845574052 5.05386155624e-05 0.0001178488293)
(-4.90957103838e-05 -0.000175203847206 0.00514829812085)
(-0.0016513063651 -8.73209031083e-06 -0.00073037385476)
(-0.00882704050467 3.74740553646e-05 -0.00191965681167)
(-0.00779209217946 5.08836339032e-05 0.0102716584291)
(0.0541593832029 -2.78109983845e-05 0.077594174229)
(0.0155350935227 -0.000225177015477 -0.0469189681153)
(-0.0288199136242 0.000128667310769 -0.0134357414701)
(-0.00591577576307 -4.53548443124e-05 -0.0043915564447)
(-0.00375840819901 -3.4031396608e-07 -0.00744698391415)
(-0.00084406821368 -0.000209082931275 -0.00308662523767)
(0.000149216244324 0.000112000465564 -0.00661732328337)
(0.00143204358974 5.01332845776e-05 -0.00145903532554)
(0.0195220846692 0.000432549474443 0.0033349505219)
(-0.0219762006656 0.000506509598352 0.0033741073062)
(-0.0541554043829 -0.000127364538162 0.000572724192177)
(0.00941534960284 0.000350127941393 0.00142135545037)
(0.000978138660475 0.000228710058635 -0.000853532692436)
(0.000202711884755 0.000254239614129 -0.000132608864358)
(0.00110513929064 -0.000159832784501 -0.00358364411892)
(0.00300910261495 0.000126742201128 -0.0116223540366)
(0.0153766470356 -0.000193941916739 0.0012337127099)
(0.010292528494 -3.9790465075e-05 -0.00793965596257)
(0.0226223968617 5.49409569168e-07 -0.063829965771)
(-0.0106761775933 -4.23829092822e-05 0.0739709024968)
(-0.0499975727602 -0.000344051663305 0.000527856796235)
(-0.007121737513 7.25712998827e-05 -0.00613607392301)
(-0.00845081020701 8.47804083099e-06 0.00987259537618)
(-0.0065928740769 9.50275466697e-06 -0.0161272378922)
(-0.000198883690958 7.18848721855e-05 0.00252745466492)
(-0.000979224355537 -7.12506052915e-05 -0.015468639497)
(-0.00461388330202 0.000129426405995 0.00271361185386)
(-0.00111856709923 -0.00021812046012 -0.000936064738859)
(-0.00193335342942 0.000239990913964 0.00229147142884)
(-0.00683776849977 -0.000154921832864 0.00147967725637)
(-0.00636343735899 -0.000347592862666 -0.00196724177129)
(-0.00918358639171 -0.000357994438525 0.0192247952587)
(0.0173788310361 6.57285266545e-05 0.0285647000221)
(0.0136847627265 -0.000272480295841 -0.0306842999525)
(-0.00532431340705 0.000440180064954 -0.0165425598496)
(-0.00433131810455 -0.000611647338471 -0.00647867425421)
(-0.00175741196693 -4.20788991571e-05 -0.00677831238098)
(-0.000722114618343 -0.000155860265838 -0.00369072635702)
(0.000483805926156 0.000268639015501 -0.00717341846376)
(0.00842893728353 1.94744065937e-06 -0.00567675054287)
(0.0177282673905 0.000356051405079 -0.00214754749875)
(-0.024088822807 0.000634797344058 -0.0775474621779)
(-0.032266461218 0.000424393716758 0.04729880148)
(0.0141266253384 0.000276358976315 0.011367699582)
(0.00778225405014 0.000300385325294 -0.00188350228047)
(0.00613917721301 0.00018043579939 -0.000139308535404)
(0.00468909793876 7.31512897671e-05 -0.00264295966533)
(0.00418970727258 0.000178388891022 -0.0074628017089)
(0.0106006854849 -0.000292657167045 -0.000999365190222)
(0.00852230531749 0.000242893716504 -0.011158042219)
(0.0484429301835 -0.000254793793043 -0.0436477893905)
(-0.0109514523616 2.45596589121e-05 0.15646670213)
(-0.0710272183021 -5.3908030793e-05 -0.0152641838823)
(-0.0203335331459 -0.000332789746283 -0.0172182431805)
(-0.00305329478898 -0.000312271562211 0.0059716940091)
(0.00270656167844 -0.000395740717938 -0.00879413750772)
(0.00559684094544 -7.14841128841e-05 0.000688861518426)
(-6.2691777586e-05 -0.000735255020739 -0.00441991101663)
(-0.00276112660897 0.000158241009319 0.00107362121457)
(-0.00321620348508 -7.75282874116e-05 -0.00185180880772)
(-0.000681192775747 -0.000127358908597 0.00273930886814)
(1.8695064598e-05 0.000345749354841 0.0015014651281)
(-0.00663612151291 -2.6816484563e-05 -0.00111281129413)
(-0.00498207263783 -0.000388450004941 0.0130169111051)
(0.0197598616566 -0.000301365863755 0.0298456816148)
(0.0229299797281 -0.000127601533093 -0.0267433240272)
(-0.00102777606814 -0.000490043455596 -0.0124513367126)
(-0.00409202903382 5.80506162795e-05 -0.00632578546352)
(-0.00322322750534 -0.000170539206378 -0.00828029592277)
(-0.0011996577433 -0.000468321783217 -0.00319643111436)
(-0.00127398149316 -4.88283868482e-05 -0.00897685723767)
(0.00413668277515 -0.000241741157782 -0.0070778198332)
(0.00466413076264 0.000142812189819 -0.00261885744401)
(-0.00907630074864 0.000187284617067 -0.0255947344169)
(-0.0181870204945 0.000112429983433 0.023371975047)
(0.00940736285136 0.000447737630017 0.0140506159742)
(0.000828894854156 0.000375678890196 -0.0327405879106)
(-0.00216158108503 0.000395357912966 -0.000359902075096)
(-0.00115321475794 0.000223981223609 -0.00326858342762)
(0.00400595393649 -0.000249482875944 -0.0179444502925)
(-0.000420368693241 -0.000555594569477 5.91883322986e-05)
(0.00356585080562 1.65533618778e-05 -0.0145578380399)
(0.0928154725777 -0.000226373456391 -0.0753080581746)
(-0.00398297392579 0.000452934458968 -0.374128800787)
(-0.0863549508789 -0.00023890316391 -0.0568368773943)
(-0.00493027356924 0.000157953468681 -0.0193816273766)
(0.000521082588261 5.12081835489e-05 0.000330597631355)
(-0.00301089094212 -0.000169366069363 -0.0101166288924)
(-0.00384084138082 -0.000189623340692 -0.00215644652645)
(-0.00519596581699 -0.000166958150515 -0.0075069744002)
(-0.00210774727626 -0.000140946234801 -0.00294953640867)
(0.000539986358139 -8.79186272369e-05 -1.32071756522e-06)
(-0.00189298150812 -1.36173559204e-05 -0.000707974417813)
(0.00429309488581 -0.000178030323653 0.00128886952323)
(-0.0221980401261 -0.00037014405741 0.0107573392851)
(0.00253077990286 -0.00023984620001 -0.00259583986185)
(0.0210876878521 -0.00110202863905 0.0217504597658)
(0.00369257020921 -0.000289753235726 -0.00981969321082)
(0.000165385102328 -0.000446269429939 -0.0103695781383)
(-0.00506776068751 -0.000523930113786 -0.0062471004459)
(-0.00431182301078 -0.00021105990306 -0.00903534870485)
(-0.000999993956012 -0.00038006780261 -0.00272599786101)
(-0.000640178936948 0.000187826088139 -0.00877408946213)
(0.00237138606136 1.82661705584e-05 -0.00666631712779)
(0.000484751305786 -0.000212572986791 -0.00168898594675)
(-0.00785368590543 -3.4717994677e-06 -0.0274553571712)
(-0.00323283416818 0.000285482832594 0.0106856203153)
(0.00337993889555 -0.000249962347935 0.00977045685416)
(0.00297823837831 0.000338181049307 -0.0363995364978)
(0.00225093097387 -6.72615334946e-06 -0.000370594901044)
(0.00415506349507 0.000160781188231 -0.00601752760179)
(0.00317906089633 3.65606001698e-05 -0.00674212618887)
(0.00362183122566 -0.000265823436314 0.000313656104272)
(0.0131602016102 0.000253364990279 -0.0268695084441)
(-0.0790608743018 -0.000157947789443 -0.0777864140436)
(-0.00183238381795 -0.000117019822658 -0.336508502817)
(0.0512889257479 -3.44841962415e-05 -0.0551007253521)
(-0.00719191219872 -0.000454621776984 -0.0136212734933)
(-0.00929292052014 -0.00127623681156 -0.00629047389103)
(-0.003770086324 6.09765517256e-05 -0.000487840407284)
(-0.00931668395382 -0.000514422403545 -0.00628322911882)
(-0.00334633154823 4.02769724559e-05 -0.00126237845387)
(-0.00137997111223 -0.000108085922078 -0.0057991710512)
(-0.00686608805449 0.000215364854529 0.00440192238777)
(-6.80633602212e-05 -4.26582088871e-05 -0.0009877384607)
(0.00983312743286 5.17638180168e-05 -0.004019798733)
(0.013613575953 -0.000439259231556 0.0175598492243)
(0.00335525410929 -0.000591575788594 -0.015116156075)
(-0.00171680981692 -0.000841091187858 0.0347578083957)
(-0.0067571338432 -0.000580177019133 -0.0116111529174)
(-0.00108655319515 0.000329691230911 -0.0101196077043)
(-0.00258979012217 -6.60520395827e-05 -0.00472740018619)
(-0.00119001932905 -0.000601098729821 -0.00735932320075)
(-0.00156560598519 -0.000493194490947 -0.000577690216072)
(-0.00128171306975 -0.00029965857401 -0.00834959265448)
(9.21450326546e-05 -0.00013595899913 -0.0102872623117)
(-0.000886797266761 -0.000253070970707 -0.000124387853116)
(-0.0119757776948 0.000224267470334 -0.022259325619)
(-0.0107969998047 -5.29742338113e-05 0.00806117394231)
(0.00511648359994 0.000341019885169 -0.000466599408405)
(0.000911966723349 5.46746171951e-05 0.0040049715856)
(0.0126773768136 0.000149410433262 7.00919508546e-05)
(0.00607001408168 5.38305270596e-05 -0.00395761922477)
(0.00579622612995 0.000177101450592 -0.0111508328224)
(0.00279416326865 0.000288607626648 -0.000458819525313)
(0.000293286302124 -0.00049542461614 -0.0110508830311)
(-0.0437516237518 0.000181656758843 -0.0289593713927)
(-0.00403127682163 0.000158227189387 0.230021246204)
(0.0483025818955 -0.000356534281545 -0.031552804172)
(0.00097961646607 -0.00105052842833 -0.00744733676172)
(0.00614465255298 0.00134211205353 -0.0142645443602)
(0.00167614769752 -0.000370324175815 0.00417867146804)
(-0.00705014359057 -9.35148641799e-05 -0.00786134384579)
(0.000648881687305 -0.000342955510171 -0.0039274973242)
(0.000490714168762 -0.000106495672553 -0.00469118030296)
(0.000676326080128 -2.50075696085e-05 0.00341245290256)
(-0.00525402233754 -7.83432530169e-05 0.00193185454828)
(-0.0277920294712 -0.000110773851184 -0.00554930441247)
(-0.045652943995 0.000305501321433 0.0256216619695)
(-0.000230646255323 -0.000594920036077 -0.0383054432418)
(0.0177127937263 -0.000552547519518 0.0316034997631)
(0.0207134380074 -0.000744870143963 -0.0225367327439)
(0.0103593824259 -0.000282823296097 -0.00643320505879)
(-0.00043778286718 -7.87885846978e-05 -0.00856299919664)
(-0.00139251726447 -0.000933227495593 -0.00961376041524)
(-0.000389276427416 -0.000390118867421 -0.000235933877631)
(-0.000895214309042 -0.000433219228192 -0.0102981403791)
(2.99196775968e-05 -0.000184994221084 -0.00671410825514)
(-0.00239652222192 -0.000165504513769 0.00149195149018)
(-0.00877300105678 -0.000288817708725 -0.0129480241832)
(-0.0158548038411 0.000103315125186 -0.000428348417798)
(0.00622555429532 4.81836298602e-05 -0.00217980148141)
(0.00466137382521 0.000186109763213 0.00858366473421)
(-0.000909723063371 0.000377078757569 -0.0037241378655)
(0.00743905200968 0.000432633515199 -0.0037423358928)
(0.00133051072121 0.000120449634733 -0.00970983331154)
(-0.00473586680265 2.91361915897e-05 0.000333734284704)
(-0.0109976697019 0.000750540473454 -0.0228982794081)
(-0.0250048512049 0.000157206598924 -0.00736474210106)
(-0.00225197068755 0.000175283996628 0.0323935416749)
(0.0325697372966 -0.000118122429188 -0.00298764030006)
(-0.00427984050649 -0.000443685547566 -0.00750417224856)
(0.00282916293216 -0.000186447364964 -0.01233738918)
(0.00617698450774 -0.000232758678684 0.0132597017994)
(-0.00779686993888 -8.93192701295e-05 -0.0117172610335)
(-0.00552828922573 -0.000244328647813 -0.00711714602283)
(-0.00626098490833 -0.000812131589521 -0.00428402025729)
(-0.00214714952028 -0.000238665979375 0.00270180775408)
(-0.000178215918329 -0.000392434762768 0.000876942643962)
(-0.00892913261319 -0.000275909207778 0.00545396845319)
(0.0281995980605 -0.000493070962436 0.0032764347265)
(0.00223426033474 -0.000538370840396 -0.0103970967751)
(-0.027433793017 -0.000867859611413 0.0231792621385)
(0.00649149420858 -0.000829057907442 -0.00769001172264)
(-0.0012400833527 -0.000988308237242 -0.00258022743458)
(-0.000921670282677 -0.00114412563969 -0.00437940839491)
(-0.00220000816627 -0.000852874949415 -0.0100153274138)
(-0.000577217293215 -0.00027351814927 -0.00309449170134)
(-0.000414418691211 -0.000700525512426 -0.00645451569983)
(0.000231017280841 -0.000286550420191 -0.00801738013539)
(-0.000136735372976 -0.000373464103421 0.00176977791022)
(-0.0042474481345 0.000732878479776 -0.0118471478236)
(-0.00482246545485 -0.000290875757239 -0.00167930894655)
(0.0104490380223 0.000453881888008 0.00585271575973)
(0.00607353067954 0.000267662569721 0.0232998686055)
(-0.00404145651194 0.000785618004708 -0.0138817162616)
(0.0179214254135 -3.04224073054e-05 -0.00529201494904)
(0.00923171943625 0.000919872992715 -0.00522415314367)
(0.00728313884866 0.000360048928408 0.00171397765454)
(0.000340435855296 0.000529202443209 -0.0153015635471)
(-0.0101785485994 -0.000317827779784 -0.00284467623399)
(0.0023113523947 -0.000141810779532 0.0994015218657)
(0.0150420357032 0.000224507323137 0.00593991978762)
(-0.00209040523244 0.000134929536435 -0.00116555300091)
(-0.00738293843886 7.76989978976e-05 -0.0325228657334)
(-0.0034402512502 -2.75512940829e-05 0.0141676879339)
(-0.00131638226384 -0.000283036726135 -0.0030124643894)
(-0.00251966291766 -0.000334764412953 -0.005351270264)
(-0.00157402885511 -0.00033743333572 -0.0014123157812)
(2.81747209913e-05 -0.000449709121343 0.000207168376015)
(0.000150352930087 -0.000639441551046 0.00537366860487)
(-0.00784751762557 -0.000620893782719 0.0120263613796)
(0.0176959781827 -0.000512813357626 -0.00898509116181)
(0.00855207090459 -0.000801794954478 0.0176859892233)
(-0.0288070493912 -0.000649498279742 0.00259675711096)
(0.00547021684602 -0.000382703073692 -0.00833815395007)
(0.000391972999411 -0.00132846819155 -0.00287115476049)
(-0.00139953853574 -0.000719303249907 -0.00833794303723)
(-0.0011680568385 -0.000554247419417 -0.00437148619096)
(-0.00125722787881 -0.000134877882303 -0.00402248515559)
(-0.00212379880027 -0.000186006666083 -0.0110431512867)
(-0.00206067296838 -0.000364175427592 -0.00917488023618)
(-0.00125471322743 5.28985731831e-05 0.00254504079949)
(-0.00416555118009 0.000294287411083 -0.00805975305699)
(-0.00394550832842 0.000149785321623 -0.00222374345369)
(-0.00373272378204 0.000609392738382 -0.00018953171939)
(-0.00294465597713 0.00046142718923 0.0310212283015)
(-0.00123608744373 0.00041374691269 -0.0103578687517)
(0.00343430748561 0.000259681883378 -0.00539585970522)
(0.00250950737302 0.000767913977075 -0.00295114672763)
(-9.86981946786e-05 0.000593510257986 0.00204980426234)
(-0.0056168686968 -9.93040369582e-05 -0.0132888096738)
(-0.02166064399 0.000253275305021 0.00723691018263)
(0.00556774201917 -4.06833643146e-05 0.0496356156097)
(0.012917206348 0.000426903654652 0.0146983747806)
(0.000235504001544 2.86410049116e-06 0.000551606259437)
(0.000336378836818 -0.00048309095784 -0.0159816146381)
(0.000223960762528 -4.78586859643e-06 0.0198554093801)
(-0.00196149894789 8.35250562911e-05 -0.0113044532358)
(-0.00160777465274 -1.52677437589e-06 -0.00897886761973)
(-0.000518912774439 -0.000354287647957 -0.00104281107347)
(-0.000760478111573 -0.000493448121981 -0.000224120529153)
(0.000337892583323 -0.000521276083096 0.00123798931752)
(-0.0156875763487 -0.000858639082499 0.0229304632258)
(0.0214094102343 -0.000381445132715 0.010497483896)
(0.00580714763496 -0.000822482822007 -0.00652496635075)
(-0.0158045997912 -0.000838220293395 -0.00451859643154)
(-0.000102511312382 -0.000769921126066 -0.00148170337431)
(0.00118167269573 -0.000568705950413 -0.00612938232026)
(-0.000778231768182 -0.00123058212513 -0.00404529450758)
(-0.00278645908363 0.000391277416118 -0.0113796127351)
(-0.000144931166773 -0.000395719443788 -0.00317444923173)
(-0.000257898309069 0.000150568744472 -0.00593606599424)
(-0.00129774668094 -0.000379368117158 -0.0087630396925)
(0.000142625363211 -0.000252447551942 0.00188489408805)
(-0.00120319559407 -7.80408930524e-05 -0.00947965773685)
(0.000364516108613 -6.33186126389e-05 -0.00227489765903)