/*--------------------------------*- C++ -*----------------------------------*\
| =========                 |                                                 |
| \\      /  F ield         | OpenFOAM: The Open Source CFD Toolbox           |
|  \\    /   O peration     | Version:  v2012                                 |
|   \\  /    A nd           | Website:  www.openfoam.com                      |
|    \\/     M anipulation  |                                                 |
\*---------------------------------------------------------------------------*/
FoamFile
{
    version     2.0;
    format      ascii;
    class       volScalarField;
    location    "50000";
    object      k;
}
// * * * * * * * * * * * * * * * * * * * * * * * * * * * * * * * * * * * * * //

dimensions      [0 2 -2 0 0 0 0];


internalField   nonuniform List<scalar> 
20
(
0.384913117523
0.441902860396
0.407400693549
0.393209165885
0.386676575814
0.383109550103
0.380948578627
0.379546923788
0.378595030305
0.377929161316
0.377456192586
0.377120263797
0.376886563197
0.376732828145
0.376644559162
0.376612041046
0.376628055124
0.376685231339
0.376771148224
0.376856052331
)
;

boundaryField
{
    top
    {
        type            zeroGradient;
    }
    ground
    {
        type            kqRWallFunction;
        value           uniform 0.384913117523;
    }
    inlet
    {
        type            cyclic;
    }
    outlet
    {
        type            cyclic;
    }
    front
    {
        type            cyclic;
    }
    back
    {
        type            cyclic;
    }
}


// ************************************************************************* //
