/*--------------------------------*- C++ -*----------------------------------*\
| =========                 |                                                 |
| \\      /  F ield         | OpenFOAM: The Open Source CFD Toolbox           |
|  \\    /   O peration     | Version:  v2012                                 |
|   \\  /    A nd           | Website:  www.openfoam.com                      |
|    \\/     M anipulation  |                                                 |
\*---------------------------------------------------------------------------*/
FoamFile
{
    version     2.0;
    format      ascii;
    class       volScalarField;
    location    "50000";
    object      p;
}
// * * * * * * * * * * * * * * * * * * * * * * * * * * * * * * * * * * * * * //

dimensions      [0 2 -2 0 0 0 0];


internalField   nonuniform List<scalar> 
20
(
-1.18654312366e-16
-1.75608382219e-16
-1.4556561235e-16
-4.78901953479e-17
2.36750019685e-17
2.248756686e-16
-5.08499297171e-17
6.92099119934e-16
1.97655248106e-16
1.50178579768e-15
1.50178579664e-15
1.50178579685e-15
1.50178579685e-15
1.50178579684e-15
1.50178579684e-15
1.50178579684e-15
1.50178579684e-15
1.50178579684e-15
1.50178579684e-15
1.50178579684e-15
)
;

boundaryField
{
    top
    {
        type            zeroGradient;
    }
    ground
    {
        type            zeroGradient;
    }
    inlet
    {
        type            cyclic;
    }
    outlet
    {
        type            cyclic;
    }
    front
    {
        type            cyclic;
    }
    back
    {
        type            cyclic;
    }
}


// ************************************************************************* //
