/*--------------------------------*- C++ -*----------------------------------*\
| =========                 |                                                 |
| \\      /  F ield         | OpenFOAM: The Open Source CFD Toolbox           |
|  \\    /   O peration     | Version:  v2012                                 |
|   \\  /    A nd           | Website:  www.openfoam.com                      |
|    \\/     M anipulation  |                                                 |
\*---------------------------------------------------------------------------*/
FoamFile
{
    version     2.0;
    format      ascii;
    class       surfaceScalarField;
    location    "50000";
    object      phi;
}
// * * * * * * * * * * * * * * * * * * * * * * * * * * * * * * * * * * * * * //

dimensions      [0 3 -1 0 0 0 0];
oriented        oriented;


internalField   nonuniform List<scalar> 
19
(
2.18532841705e-17
2.11860739698e-17
2.02027628411e-17
2.07165603254e-17
2.13378597846e-17
2.25507724604e-17
1.87774697416e-17
1.85302227558e-17
1.35661111292e-17
1.66215237049e-17
1.94511217181e-17
1.80117021576e-17
1.58139235328e-17
1.36833030923e-17
1.15967362565e-17
9.47908959322e-18
7.30505405944e-18
5.03894056434e-18
2.62937033848e-18
)
;

boundaryField
{
    top
    {
        type            calculated;
        value           uniform 0;
    }
    ground
    {
        type            calculated;
        value           uniform 0;
    }
    inlet
    {
        type            cyclic;
        value           nonuniform List<scalar> 
20
(
-0.00726274639042
-0.0117756505647
-0.0152268241028
-0.0187284662347
-0.0225227331346
-0.0267380805696
-0.0314823366965
-0.0368604141261
-0.0429829353831
-0.0499715226568
-0.0579629382392
-0.0671130394418
-0.0776010977746
-0.0896349322533
-0.103457376148
-0.119354825299
-0.13766908755
-0.158814690516
-0.183305749928
-0.211800834245
)
;
    }
    outlet
    {
        type            cyclic;
        value           nonuniform List<scalar> 
20
(
0.00726274639042
0.0117756505647
0.0152268241028
0.0187284662347
0.0225227331346
0.0267380805696
0.0314823366965
0.0368604141261
0.0429829353831
0.0499715226568
0.0579629382392
0.0671130394418
0.0776010977746
0.0896349322533
0.103457376148
0.119354825299
0.13766908755
0.158814690516
0.183305749928
0.211800834245
)
;
    }
    front
    {
        type            cyclic;
        value           nonuniform List<scalar> 
20
(
-5.68996574757e-32
-1.01984095513e-31
-1.37903435776e-31
-1.71006457369e-31
-2.09320487969e-31
-2.51152195214e-31
-2.97814828094e-31
-3.49705897159e-31
-3.94130828072e-31
-4.36231628684e-31
-4.85334037523e-31
-5.40451629045e-31
-5.83346560054e-31
-5.92540656995e-31
-6.13491268954e-31
-6.28446727424e-31
-6.2478589589e-31
-5.58605783855e-31
-3.9131821949e-31
-1.5418374975e-31
)
;
    }
    back
    {
        type            cyclic;
        value           nonuniform List<scalar> 
20
(
5.68996574757e-32
1.01984095513e-31
1.37903435776e-31
1.71006457369e-31
2.09320487969e-31
2.51152195214e-31
2.97814828094e-31
3.49705897159e-31
3.94130828072e-31
4.36231628684e-31
4.85334037523e-31
5.40451629045e-31
5.83346560054e-31
5.92540656995e-31
6.13491268954e-31
6.28446727424e-31
6.2478589589e-31
5.58605783855e-31
3.9131821949e-31
1.5418374975e-31
)
;
    }
}


// ************************************************************************* //
