/*--------------------------------*- C++ -*----------------------------------*\
| =========                 |                                                 |
| \\      /  F ield         | OpenFOAM: The Open Source CFD Toolbox           |
|  \\    /   O peration     | Version:  v2012                                 |
|   \\  /    A nd           | Website:  www.openfoam.com                      |
|    \\/     M anipulation  |                                                 |
\*---------------------------------------------------------------------------*/
FoamFile
{
    version     2.0;
    format      ascii;
    class       volVectorField;
    location    "50000";
    object      U;
}
// * * * * * * * * * * * * * * * * * * * * * * * * * * * * * * * * * * * * * //

dimensions      [0 1 -1 0 0 0 0];


internalField   nonuniform List<vector> 
20
(
(2.31987300831 2.041890599e-30 7.95021315825e-16)
(3.33208954208 2.88578653257e-30 8.91073150222e-16)
(3.81688878391 3.24615952286e-30 8.17240523752e-16)
(4.15882655359 3.79735418175e-30 8.13516030317e-16)
(4.43055475305 4.1176436152e-30 8.31982716988e-16)
(4.65946083464 4.3766560359e-30 9.15540691271e-16)
(4.86005090685 4.59748346924e-30 8.13290490931e-16)
(5.04083509567 4.78239271411e-30 7.6904992807e-16)
(5.20723013749 4.77475516215e-30 6.21983151154e-16)
(5.36292477233 4.68162121856e-30 5.26525190835e-16)
(5.51058791865 4.61411371633e-30 7.92179535017e-16)
(5.65226964643 4.55169124156e-30 7.62089130749e-16)
(5.78964920143 4.35222186596e-30 6.73484672832e-16)
(5.9242053088 3.91625498854e-30 5.86356167314e-16)
(6.05735026322 3.59194446819e-30 5.03280304551e-16)
(6.19055562012 3.25955352929e-30 4.19380984595e-16)
(6.32549480723 2.87070976528e-30 3.33764657726e-16)
(6.4642354003 2.16500125088e-30 2.45284842755e-16)
(6.60953641692 1.41099339401e-30 1.52196679534e-16)
(6.76536136728 4.92495125308e-31 5.20947494682e-17)
)
;

boundaryField
{
    top
    {
        type            fixedValue;
        value           uniform (6.84639 0 0);
    }
    ground
    {
        type            noSlip;
    }
    inlet
    {
        type            cyclic;
    }
    outlet
    {
        type            cyclic;
    }
    front
    {
        type            cyclic;
    }
    back
    {
        type            cyclic;
    }
}


// ************************************************************************* //
